# vtk DataFile Version 3.0
vtk output
ASCII
DATASET POLYDATA
POINTS 1299 float
-10.388765287282471 25.01951290576341 -12.847206402763094
-10.390071736265702 26.22643797527623 -12.813135599456608
-11.362474382423308 21.966281852189788 -12.528224092296691
-12.839968208812818 23.586760598973434 -12.339321863429308
-11.428993992656011 24.890882367831114 -12.673845488509576
-9.873982324566045 23.936310503509095 -12.857652691447765
-9.737810887560672 25.359568360175757 -12.898296553219536
-9.398010034425875 26.531148398430062 -12.547089248245854
-11.805807094698986 21.221991299794613 -12.34346311068445
-10.343210995153251 23.11325304114802 -12.564418882304164
-9.224471536721698 24.260644447142525 -12.598548242882053
-11.53124913612307 20.058416602910647 -11.936522896731658
-10.72001905736878 20.91940724173114 -12.134232998272665
-11.64159469154909 20.40524622546428 -12.18464611368521
-12.727544260558975 20.515213217234482 -11.624311601607854
-15.451554509329277 25.09468939217192 -12.062261565456492
-14.161677978301787 26.06986600735117 -12.390234223079807
-11.232295309059744 19.478383344329902 -11.120824326327394
-18.047458641824413 26.304314869250007 -11.416660749119574
-15.914439795593973 27.55918486227566 -12.142631585563617
-7.410801915064004 27.828059191340262 -11.866528214498308
-5.919271998182911 29.96869880660521 -11.335433775322974
-12.42254742655602 28.499377299988414 -12.135328892373439
-9.308491405246137 29.179366721935253 -12.0103883326682
-16.450040648745855 33.2403620263477 -10.887166386145218
-11.466463364227394 32.495299875397095 -10.992629739674918
-13.602386351556136 34.59920799387785 -10.020302384813528
-11.832155723284501 16.80880075099116 -9.492329162172632
-11.605238719299162 17.35073276710391 -9.742137584355334
-11.97358581541509 17.750426086810567 -10.079694762995432
-10.330223198743239 18.447650551134696 -10.340466869269099
-11.89104195839541 18.170955639197594 -10.356614777785143
-5.342312786587865 22.0359641735534 -10.071925369943047
-8.011112036707024 25.082069963684546 -12.12408272080775
-18.62125918190305 29.467513045072234 -11.636115878285882
-20.665091167217536 31.204034253772388 -11.1176198697033
-16.555579159477787 30.309262634459383 -11.821962652673767
-10.089335186645732 31.44729427322676 -11.370547519174085
-19.17710980297958 32.721992010937555 -11.087549054172333
-11.347384072337437 16.398237851844993 -9.424885099604708
-12.233992612443274 16.511449594676215 -9.480290893545563
-7.632018045896385 21.992682330094016 -11.083798511758657
-5.535181927117825 20.876137870476065 -9.64883585116381
-3.7543404563876175 22.979232177817376 -9.013300442973991
-4.975781827064658 23.000347226393544 -10.155880631549625
-16.139241453136837 22.599863329032345 -10.921355793087661
-4.84900823985874 24.54159802744029 -10.34835530303785
-5.382205439285563 27.19854999999496 -11.008936771177861
-6.988438240611145 25.426952243679132 -11.678550581777454
-20.921543300566373 28.714202942855742 -10.746646867618129
-4.630074796829124 30.61961803644748 -11.073391299931888
-22.726389112636326 31.639009277898406 -10.219218281339215
-4.33865588460802 31.732360001798384 -11.037688018052311
-25.647223371133727 33.31634726441451 -8.480316418158072
-21.462849021516043 33.23344135805404 -10.603229332484629
-9.914524521196697 35.18779003662099 -9.503799023227552
-23.10844767135433 34.13997025795631 -9.766793082939945
-18.779553521272817 35.056681897911965 -10.252063381473064
-11.431357294961968 16.22315426501526 -9.33487263760176
-8.421939938809517 19.091163011299066 -10.214230551581204
-7.0854650749958505 19.28401488319842 -9.78373760765281
-7.619838990810988 19.910017216917876 -10.473702070240266
-5.801048010627294 19.488748261931853 -9.214120018751116
-3.986749869524441 24.22379798240876 -9.766741724220076
-20.82682910385304 24.883230059621155 -9.589713094598785
-24.1279101382809 28.864922240891644 -8.98907376990872
-3.6577966061150713 30.628175690827035 -10.320067258139478
-4.006153215478369 32.12814210669937 -10.663718776444805
-4.0515871776373364 31.389745377672906 -10.950628338957511
-7.625808115998388 31.662245513302544 -11.074595340879199
-26.826812646447593 34.85916369937042 -7.818206593657267
-24.187712407182843 35.94841653251745 -8.657301218763674
-21.312092080460275 35.973979746826295 -9.482046549103659
-11.316464898831336 16.125761836331183 -9.129759865889763
-12.313379924397555 16.23451578280828 -9.095335773846703
-6.298030627528788 18.95724635121203 -9.323957392645719
-14.07939682419283 17.968210505086553 -9.255184925185352
-4.320042959752216 20.61744749790321 -8.173023371311393
-18.758783588998455 21.02797096951185 -8.70665653957514
-25.07938090101132 25.23405292973682 -7.30501729143177
-29.15744674651177 29.45062117161096 -6.039528036644146
-3.42944090002796 33.97295467556797 -9.35920315584054
-5.073953399852755 32.3038459907207 -10.733759253354629
-28.247999335448444 34.362837275795556 -6.835429563691542
-29.318685317448203 37.16989571223549 -5.368936861065348
-26.614728961756555 36.533800257184794 -7.258870506026428
-11.605328802242248 15.97879278928236 -8.712627601729308
-9.798132752945026 16.908294603660487 -8.78562699204655
-6.308332919648727 18.7412035322517 -8.713896364305768
-1.9830692385355215 31.72697435658872 -8.868657517105678
-32.851046769501394 30.860324203897818 -4.254237579954929
-6.246622393652596 35.240279513511965 -9.23549791202501
-18.08133160321996 37.760943100656895 -8.501186306939445
-11.458651839374008 15.801506225630055 -8.103977411653183
-16.823551064705384 17.407751131788707 -7.1570291753155395
-2.933672932987899 26.844348723523456 -9.147635623570407
-2.0018641382766744 33.618887855680654 -8.93016855876825
-31.998836021266786 34.21776493369037 -4.322366028601712
-24.26261018251085 39.030043407328854 -6.860739888840275
-21.320008318085044 38.67795357992666 -7.928634483749679
-28.057666521474385 39.98418474942373 -4.721665774351947
-12.97634562189686 15.868604638307731 -7.7274681889561085
-5.0650498743477534 18.413317830649166 -6.427089575557274
-22.185463554679522 22.130584821583614 -7.411281993817967
-25.62648351260681 21.820561892681937 -5.0438760407495655
-28.13504457416705 24.774411167685233 -5.323090674901336
-0.806088201120435 29.540856386507365 -7.386827353453113
-1.6782028405678728 34.77991737887342 -8.251393731176142
-31.958266403493926 39.990601424034956 -2.250036663690936
-13.42955278927494 39.762380240363655 -6.647950059184733
-1.4198535152082958 33.50217374221396 -8.510811779571798
-0.5578106660416233 33.432496094074466 -7.285349825482605
-35.23605163245136 31.607614057063703 -2.949219436684811
-4.605504514415629 37.225565907024844 -7.880823785163027
-21.73655546459021 41.14322561952186 -5.771331347143039
-29.797547111316806 42.417689502716584 -2.6228349711197567
-26.966705556439795 43.558950482433545 -2.2074338450173427
-5.812757454725613 16.78027294443767 -5.371322081373881
-4.3783237396404155 16.7163495371401 -4.241751893361647
-20.267802264339057 18.397233158759647 -5.3502304373816205
-34.888414184664306 28.097993954550297 -2.7141967116396692
-38.05907137983448 30.70094129809471 -1.6429990397382273
-36.117557850995574 30.131110690555484 -2.6551094931503045
-2.588897805790838 36.87677980037744 -7.6048605050531055
-7.308068679612042 40.18037023057696 -5.581492407488723
-31.16291157016475 42.38991652357541 -2.036503137240288
-30.47024114880166 43.86385342310935 -1.1826437322691434
-11.333317008339723 15.277558297750813 -6.64085892040144
-15.980588757089672 16.472327608610588 -6.376542842899198
-31.09124348492319 25.372615009611014 -3.8215528106349814
0.9205283157190934 35.93753348228286 -4.682443320588057
-0.8467388742320628 36.43645187580942 -6.680128697483906
-31.081750818007464 43.33174180723817 -1.551907649172624
-32.403920671164215 43.87797477106395 0.10689030731082057
-3.259048701034904 16.705810229419317 -4.132752508313521
-2.1959126055575995 18.937233928359436 -4.665346357689933
-29.405768925865047 22.504296729825676 -3.2520225186003846
-40.66688542261154 29.426915368423295 -0.536150064710166
-40.42749760292691 30.748486540620586 -0.698681769332679
-3.9052764171729937 38.924089803498624 -6.547802508032831
-32.44746222778212 42.91819570465792 -0.52280726065917
-18.14005070321699 42.191146104346885 -4.945833663078701
-12.049778876974306 14.57260546851333 -5.589645265656432
-2.744290087794332 17.186467741395788 -4.080972581936356
-0.14249061324174517 24.238331118941225 -5.469021899646761
-41.32513257805919 28.003483106657214 0.08649544633948993
-42.42286950597207 30.588586457531488 0.575728473558164
-0.28926666968583786 37.743925042080875 -5.4671491642285694
-1.7635521815626511 38.84525482117721 -5.665511782910726
-40.13812347603382 32.27789214062266 -0.4979641490180312
-42.01311104759624 33.71527650858617 0.8807552007551823
-3.7509648920066727 40.43898096274682 -4.930594249169567
-22.01046531558417 44.2453384401713 -2.5882710824052575
-32.44071587759055 44.21907054061298 0.6556304156448789
-31.099791398902475 44.31355100620771 0.23703759526957346
-8.172755236864266 15.715931414465185 -5.0817553880966715
-2.929470794335052 16.67942990484086 -3.6620991957522415
0.8571662278165917 31.336832503509633 -5.477956760695027
-41.1815751505955 26.36526186656708 0.8322664016506625
-39.14887497452968 27.832157093737703 -0.7828636478807508
-41.99902007513506 28.920174889955707 0.24341824394777842
-43.90055666420688 32.00282126888589 1.6469850672108481
-44.44158883088509 33.81413047167736 2.352666189790249
-37.26213533045514 35.4752598851972 -0.714276432775822
-11.871470603042988 43.39939140051478 -2.9778596656587237
-15.331314877506403 43.53634334088838 -3.385325968638742
-10.900790489332367 14.670541206445037 -5.410829942562371
-12.016485150833752 14.328252109836177 -4.93192251414687
-3.6937363316347698 16.164038966365176 -2.7669601823596226
-1.42930866997787 17.66401076859243 -3.0241397494676105
-0.00840205402168652 20.28168890094605 -3.9924234940432988
0.8447779853605198 21.68788776949697 -4.20626973672227
-28.276533183926613 18.771355217618616 -0.4072806116605046
[...]
POINT_DATA 1299
FIELD PCA 16
mode_1 3 1299 float
0.0011493210444641002 -0.0034274865564775966 -7.350633949793514E-4
0.0012673872519929114 -0.003483368687155066 -8.501469060477761E-4
0.001049588728319871 -0.0032967259143022783 -6.031766082052675E-4
0.0014129936973042367 -0.0034159128483963936 -8.736972837560427E-4
0.001297414178948098 -0.0034290933911322696 -8.100742597984893E-4
9.699887003695815E-4 -0.0033782394820867446 -6.143283712489115E-4
0.0010896207543612472 -0.003447492833997111 -7.353042836389512E-4
0.0011627913390637834 -0.003499925840442408 -8.909506542842193E-4
0.001084611638404034 -0.003274324180765534 -6.193806271373916E-4
9.751327670474308E-4 -0.0033455904457770783 -6.206110237172221E-4
9.05079997087417E-4 -0.0033974903576419226 -6.545517026923967E-4
0.0010002243972428307 -0.0032323120723444366 -6.009063434518433E-4
8.936239204287364E-4 -0.0032500223642722196 -5.531534108542356E-4
0.0010156329128138178 -0.0032356910984027193 -5.79011675773872E-4
0.0012602852383209497 -0.0033141144299194043 -8.11155306124723E-4
0.0018719870671525568 -0.0035639777672781194 -0.0011957313089762875
0.0017705255715977117 -0.00354334464538541 -0.0011085943773103631
9.996416213995283E-4 -0.003259076065152869 -7.214943388785957E-4
0.0022685309816984616 -0.003698597778391032 -0.0015356843526855611
0.0020881397637812064 -0.0036456946561223284 -0.001326269280522013
0.0010146415910738005 -0.003565747606976924 -0.0010665425306555457
0.0010339849228281064 -0.0036772781416032014 -0.0013425048902504031
0.001767007739107506 -0.0035674545009482363 -0.0012167700691944135
0.0014489818659426973 -0.0035925825467834752 -0.0012263069705563746
0.002634312923623665 -0.003718155444328155 -0.0017981013077262502
0.0020968115297983763 -0.0036218537891955197 -0.0016675906266691574
0.0025219464157056675 -0.0036382881381213316 -0.0019554436590116546
0.0011898791669504047 -0.0032519735179023855 -9.390463397757649E-4
0.001121138014411796 -0.0032564594781868666 -8.986540842635639E-4
0.0011701126120253708 -0.0032622760958702897 -9.010101971330927E-4
8.545036809846075E-4 -0.003231099021948454 -7.124132583465429E-4
0.001142505137145735 -0.0032630629573137775 -8.640763657369911E-4
-9.302867515306113E-5 -0.0032929199100646804 -5.083588384490575E-4
8.084413374181782E-4 -0.0034434239516068577 -7.616788647173208E-4
0.0025136048729792236 -0.003776656125037339 -0.0016225500858987702
0.0028208194632824953 -0.0038751689619359827 -0.0018575982484613737
0.0023718202890676237 -0.003714412548804023 -0.001523169020619638
0.0018165948871815905 -0.0036240716104312424 -0.001525185312919151
0.0028178915780372963 -0.003822530001639002 -0.0018373920095488992
0.0011092622255438806 -0.0032160722074044356 -8.685790578288384E-4
0.0012906638025884933 -0.0032515550498317903 -9.78079922893127E-4
4.486555749802081E-4 -0.0033071631098745146 -5.875764685727838E-4
-1.3393722190519248E-4 -0.0032438840484693703 -4.6270738292162055E-4
-3.53888560738223E-4 -0.0033482679991119523 -6.595803870664403E-4
-7.188422046503992E-5 -0.0033433060286396543 -5.852875944233184E-4
0.001901124678814709 -0.0035492546083890765 -0.0013597062720300977
1.0412658456502017E-4 -0.003425836614054268 -7.541938533068436E-4
5.794937263040211E-4 -0.003563714059230035 -0.001043589234021589
6.799079980244892E-4 -0.0034684550844161126 -8.261033908983979E-4
0.0027000872487398992 -0.0038515204078275536 -0.0018939510800240942
8.996789690067663E-4 -0.0037452134689081582 -0.0014370608683888324
0.0030132553749245903 -0.0039451865409713145 -0.002121104189085186
0.0010024034228383284 -0.0038041927212630958 -0.001576269411171477
0.0033107218999960386 -0.004022807033960071 -0.002563424067254788
0.0030304749633717457 -0.003911701096575409 -0.002021605376423733
0.0022084732007151657 -0.0036212032841295675 -0.0020482365481085413
0.0032031501741471265 -0.003961536039335119 -0.002244412310201127
0.003000055079084056 -0.00379438185278823 -0.0020414219076157025
0.0011506402417879352 -0.0032240891124509737 -8.963696378553114E-4
4.7864928877883715E-4 -0.0032140901180294653 -5.538027718133343E-4
1.5477813372004727E-4 -0.0031962529212721685 -4.578543030498199E-4
3.109913070235836E-4 -0.003211665496568204 -4.6733913151638295E-4
-1.6385070685387868E-4 -0.003186679809954767 -4.02100405347085E-4
-1.4849840871617383E-4 -0.0034064243318796313 -7.159211461957364E-4
0.002598474156704304 -0.0038045440252724807 -0.002057829294325877
0.0030217617577733783 -0.00395644691573691 -0.0024072799648952163
7.004379157875978E-4 -0.0037238565501973046 -0.0014709018991695758
9.894619697739743E-4 -0.0037969912932145767 -0.0016402394180782386
9.001011995563477E-4 -0.003797121179720926 -0.0015373950302146602
0.00150331852786038 -0.0036617449291201226 -0.001554956954065842
0.00343529724140608 -0.0040546895681669096 -0.002707019591886691
0.0033903465027037573 -0.003967948043175427 -0.0024825213271491755
0.0032401876373091827 -0.003872001846643103 -0.0022604913138605954
0.001160035709790937 -0.00324642386464019 -9.338983268994723E-4
0.0013753545874795276 -0.0032991578771543327 -0.0010822766440335206
-7.57046847646168E-5 -0.003164887055426841 -3.794668954055914E-4
0.0016456043028391432 -0.003424338199284976 -0.001333148338815955
-4.078020730536297E-4 -0.0032669925818861914 -5.867853716764478E-4
0.002385810105248905 -0.0037077079564823267 -0.002008135287878151
0.0031324407203745367 -0.003979093816218983 -0.0028187424003759433
0.0034702363853581324 -0.004075332064088733 -0.0031986283957569986
0.0011243405803727637 -0.0037565763321125854 -0.0019254502813517795
0.0011942036213543658 -0.0037574235892667367 -0.0016555361218799085
0.003503591366393783 -0.004068234350197891 -0.0029258827729252038
0.003699824444741756 -0.004040978485480699 -0.0031363832702358567
0.0035373513344775626 -0.00401550144514974 -0.002780644677950014
0.0012862793072085424 -0.003315703252545963 -0.0010810724051993727
8.320346720540998E-4 -0.003268152192233073 -8.627518841191029E-4
-3.73580443102376E-5 -0.0032040919987276423 -5.085334913040304E-4
5.068760724984794E-4 -0.0037164319954666575 -0.0016743092080652921
0.003662412532769111 -0.0041226816933506 -0.003600722077461627
0.0017425044391551287 -0.0036806021142425645 -0.0020816572735639807
0.0032007296295693604 -0.003710648081019333 -0.0023994202333602753
0.0013418001625260115 -0.003391633491427933 -0.0012159037424452194
0.0023224033012507776 -0.0036833824774762975 -0.0021006844969166443
-2.5980439503819828E-5 -0.0035339117732737773 -0.001081747207041646
8.049484551737482E-4 -0.003774176115163534 -0.0018984484964998907
0.003698798072908082 -0.004092418850977942 -0.003429225286165791
0.003635600336990164 -0.0038779823929907453 -0.00278744906472053
0.003479477235342268 -0.003804229985974039 -0.0025709518422691482
0.0038444323446197195 -0.003946023287133212 -0.0031817753056948843
0.001703049728950496 -0.003499950389924172 -0.0015125223720394677
-2.3210845185405953E-4 -0.0033102962138626454 -8.145890069001398E-4
0.0028880448256559566 -0.0038891318087598977 -0.0025953735571238624
0.003433827074355431 -0.00404552191977016 -0.0033357724506708265
0.0035126485777210175 -0.004078098262244049 -0.0034165430624742005
-1.004100509728156E-4 -0.0036111526896131724 -0.001523066365767385
9.288063310340207E-4 -0.0037575633925435565 -0.0020866023124432413
0.0040113743721045215 -0.003988623010651623 -0.0035568366902498133
0.003061595770787092 -0.003538730708994041 -0.0027162843334279096
6.743495362744372E-4 -0.003762664662499524 -0.0019089205728695631
4.939426151885373E-4 -0.0037027675933680245 -0.0019926308004216873
0.0037729043265771443 -0.00413653652173142 -0.0038363529076987806
0.0017696860146854676 -0.00367121161454976 -0.002401206452480369
0.003726253857236996 -0.003706718841870737 -0.002952175308330638
0.0040769872937799195 -0.0039195626722022545 -0.0035034290811009772
0.004133871060807228 -0.003735379599383439 -0.003516668939749656
4.496064103224384E-6 -0.003362203994780936 -9.671248137854286E-4
-4.202630089590326E-4 -0.003317332882030207 -9.185304147559812E-4
0.002954519160127532 -0.003911317554172855 -0.002808049057049574
0.003871326615587635 -0.004136651392887621 -0.004012987412768634
0.003878214513431361 -0.004143434932389097 -0.0041237847036768045
0.003792363579177677 -0.0041492002389809735 -0.003984872052043492
0.0014163242455353697 -0.003706722180819867 -0.0023859266699548273
0.0025127654177142466 -0.003504861332133455 -0.0028795239218593785
0.004108800424613491 -0.003958678406475517 -0.0035851851555864546
0.004226410472859178 -0.0038658275352605794 -0.0036721957118883526
0.0015163486083761587 -0.00356066572161296 -0.0015495627703429101
0.0023540687104288975 -0.0037426322784347194 -0.0021898271084038576
0.003787550377702353 -0.004127378830372897 -0.003816610916312934
6.522668215848255E-4 -0.0036276508305081293 -0.0025237667383455355
0.0010519273667180004 -0.003695482918887333 -0.002403033809850697
0.004177529578196277 -0.003927839737015762 -0.003638535282895214
0.00430360666072464 -0.0038858818122084696 -0.003793697144157676
-8.772867287667464E-4 -0.003228726374976074 -6.581073277128922E-4
-0.001069286354156303 -0.003278051994257499 -7.773157219723822E-4
0.003866954460389531 -0.004142190571785152 -0.00391679361856837
0.003995170746663611 -0.0041278063654889285 -0.004372084057166072
0.003944365245513149 -0.0041512849657187436 -0.004266501042700043
0.001916821695392313 -0.0036197306482633963 -0.0026937828066373993
0.004223405250527961 -0.003926296481420078 -0.0037266574811199316
0.0036613480772460082 -0.003538369444899981 -0.0030748315097376654
0.0018963191716689237 -0.0037414470717186733 -0.0019267536443037146
-0.0010218177354384876 -0.003227457459009137 -6.79211955076866E-4
-0.001116311126426816 -0.003430878750268012 -0.0011301646088236654
0.004136245764742403 -0.004095025455124704 -0.004521986481131801
0.004139371672744334 -0.004135912889772767 -0.00437559284658714
0.0011804485234161602 -0.003644054692347809 -0.002657335557944543
0.0015979156884589293 -0.0036186618325738055 -0.0027643382961484602
0.003972536493020224 -0.004155166800059932 -0.004183736470638941
0.004140506892565058 -0.004169811471636828 -0.004213655105302088
0.0021261967324358888 -0.003530753855674738 -0.002991098675221696
0.004052508481810331 -0.0035330000535672233 -0.0034666419618852714
0.004355286859198133 -0.003847092193045263 -0.0038456788850427704
0.004334537449396649 -0.0037966994993654693 -0.003802014250056851
7.962377717805122E-4 -0.0035147826534409924 -0.0014079156809594302
-9.517638513431272E-4 -0.00322871765152165 -7.372782548077059E-4
-1.555526335052856E-4 -0.0036062167909106757 -0.0018992109429768473
0.004364061966678162 -0.004078475522588453 -0.004658560828309491
0.0040649912874909135 -0.004115561447196425 -0.004402376690246483
0.004113545739748164 -0.004107186387162203 -0.004482287865538768
0.004283771686313383 -0.004155660249622405 -0.004341834896947755
0.004363949480149758 -0.004173057475221452 -0.0042742316669061205
0.004007614333735123 -0.004093892733128142 -0.003945403859556508
0.003362431185468217 -0.003345240219549237 -0.003357769350381749
0.003643449420067496 -0.00339224503148403 -0.003317777735735142
0.0016197678629788627 -0.003692728274299296 -0.0017883162386794754
0.001999740685369587 -0.0038210025403837447 -0.002088318979828602
-5.49359601185839E-4 -0.0033122871607598635 -0.0010838133860956768
-0.0013663094020204595 -0.003221649321230975 -9.017198809650473E-4
-0.0017469538179768422 -0.0032803759954627663 -8.508312792127983E-4
-0.0019246044754584236 -0.003330989466531482 -9.027489637816354E-4
0.004324728171268428 -0.0042638025580825556 -0.004402771097946617
0.004591776631165617 -0.004049199395943477 -0.004750586023742396
0.00467457379063146 -0.004073782073942219 -0.004483966515906365
0.0042280882277672465 -0.004185912077159184 -0.004216354428668545
0.004314755435809685 -0.004125492969061289 -0.004164430670810706
0.004375940992464692 -0.0036976326073769016 -0.003857994228802788
0.004335579931593552 -0.003645807167806746 -0.0038023700627415743
0.001754688479430519 -0.003805798495146921 -0.00205076850722347
0.002307513650653033 -0.00386418768714194 -0.0023052838814119027
-0.0021479844046838597 -0.0032857970170795665 -8.996297763746019E-4
-0.0022270865627687323 -0.0033529152203125405 -0.0011407503222718837
-0.002057325221643696 -0.0034571353140136997 -0.0012693609152176616
0.00435894019368831 -0.004189914975873635 -0.004501169790256219
0.00441494472251086 -0.004127129717639614 -0.004630324470551489
-0.001626549939435441 -0.003581814066117811 -0.0018493597432950473
0.0013660056081692333 -0.003573135011920209 -0.0029215126777069745
0.0019543627543322996 -0.0034689637006468507 -0.0032412484581082106
0.004500550799357775 -0.0041750566858520955 -0.004216191576326409
0.004007911314940305 -0.0033525741133556036 -0.0036229699226086056
0.004264126156387296 -0.003526680242604296 -0.0037315485178698996
0.002222083353861633 -0.0039388726540605205 -0.002374608617645826
-9.823789159312114E-4 -0.003237748629793349 -9.025566578364832E-4
0.004090657137944732 -0.004361135774103809 -0.004138881553956483
-0.0019295651378992231 -0.0035061593200462547 -0.0014195668507565062
0.00482560787231463 -0.0040811174995550965 -0.004868783461507872
0.0043798507219623296 -0.004073771156848247 -0.004596429115102035
0.0011176649584701789 -0.003524014802273109 -0.0030863548786482504
0.004711788645301799 -0.004144515496709223 -0.0042794064237984715
0.004957469070057803 -0.004121386242628944 -0.00416626757190322
0.0046663157808413454 -0.004168730785014091 -0.0042033047632036025
0.0024569011481236315 -0.003408965693358811 -0.003317410840024455
0.004649983855184841 -0.0041003340674904834 -0.004171195696293307
0.0031839865646579096 -0.003281425457216732 -0.003548223386717414
0.004300879546348721 -0.0033546973860121556 -0.0038997065965427624
0.0015193519817078582 -0.0037981155935352235 -0.002149396593608574
0.004971666200023312 -0.004103492922555767 -0.0042516338249672225
0.005189043843689235 -0.004097501365562463 -0.004080116355705306
0.0028648964957018516 -0.0033045729700206332 -0.0035456352135482356
0.004992380588291245 -0.00409519013165398 -0.004144246207156606
0.004587870590771204 -0.003783906405113563 -0.004124703763800999
0.004715046341240685 -0.0034059420459851817 -0.004331577440302087
0.00446091962978286 -0.003497185558858182 -0.004017509383681876
0.0021981442616820267 -0.00400225186629024 -0.0025612337247690035
0.0026419772308043875 -0.0041059533331911455 -0.002829823454560416
-7.243744762104131E-4 -0.003301704803270178 -0.0013554709381668095
0.0030990600412609394 -0.004091753742119053 -0.003097364488462463
-8.464342170033784E-4 -0.0036053913824852747 -0.002386123832397864
-6.392318508640617E-4 -0.0035773881257958173 -0.002056186510390091
0.005236151868716653 -0.004036522608388187 -0.0042109903215602935
0.0015681950282260527 -0.003494606932597306 -0.003209357887981146
0.005510942336932235 -0.0039936053140900195 -0.0040674982297938065
0.006039786473263146 -0.0038743154410742814 -0.0038740177261113655
0.005410915235036248 -0.004059327714370198 -0.004008303646465147
0.0056445823087594 -0.004043758044645749 -0.003883884591705726
0.0052301207222521665 -0.004083257001992674 -0.004131051389089284
0.004769013152989199 -0.004014103182341558 -0.0041908241390468046
0.00516667233341526 -0.004338014193477335 -0.005316762454274577
0.004932293195632482 -0.004024850469454016 -0.004741645354484708
0.005039105133998858 -0.003988697253684756 -0.0046254539549542015
-1.0822095096320884E-5 -0.003605437431483703 -0.002334755139952687
0.0050847899512993155 -0.003994391661365719 -0.004525690281239737
0.005118073106497686 -0.004024457350076942 -0.00437457128845628
0.005759696485045903 -0.003858567880898284 -0.004242898154766036
0.006120999934015261 -0.0037831358770169564 -0.004029026431605762
0.003587721197278739 -0.0031787103157876607 -0.0038322203600771204
0.005369625646535839 -0.004109704261975548 -0.004033796924541803
0.0038528116763360707 -0.0032199467135990904 -0.0037829456748073526
0.00526674317784571 -0.004098990343618782 -0.004167718255213834
0.002729338084855457 -0.004205615683928098 -0.003121446339750742
0.0030137305891495916 -0.0041763571418575365 -0.0031229776502724993
-0.0022000081773181444 -0.003218212748624846 -0.0011477682280384178
0.0051739080203657304 -0.004214180049514689 -0.005135035814694807
-0.0025182790914627232 -0.003508768372673052 -0.0017057386322453928
-0.002160224083398948 -0.0036168190580719737 -0.0019200192040976624
-0.0018468796393514572 -0.003637706317039873 -0.0021728580294637072
0.005590051123437123 -0.003912017506165241 -0.004609355559515894
0.005069272909234316 -0.003984128051281726 -0.004579059452644338
0.006095853682359682 -0.003913931431109362 -0.0037124497325781193
0.006062174871747002 -0.003933297816887499 -0.003697375743998931
0.005893127315268312 -0.003999471865595186 -0.003730609873742093
0.005459622288098224 -0.00408027058984766 -0.004028697659977691
0.004961818296789423 -0.003966873797216921 -0.004302819793079411
0.0052683880638769295 -0.004074936493461408 -0.004242122449160384
0.003688253958598595 -0.004402025610485563 -0.003862019814461334
-0.0013327159446357049 -0.0036261495596190143 -0.0023747616567566607
0.006419053516305274 -0.003630916022413748 -0.0043336114113422435
0.006404620346508355 -0.003649095294905072 -0.004126203557629429
0.0017173988923519172 -0.0033925184205361282 -0.003534919003616943
0.0066199094714175745 -0.003693989463135697 -0.003707418850782229
0.0025946404905021676 -0.0032409673117193972 -0.003849812702028681
0.006320111096656186 -0.0038264979514987026 -0.003667991541574575
0.006209863167938896 -0.0038183388451143697 -0.0038075376497066185
0.005810401675621218 -0.004001899135025647 -0.0038175664562498167
0.004984450258530785 -0.0038124589683600804 -0.004412133119180362
0.004244738449409548 -0.0031359560744646355 -0.004132690048632432
0.004562245543082104 -0.0031433430742595306 -0.004333641855895941
0.0047354958015761485 -0.0032102904378784494 -0.004414555544535318
0.005383187015491096 -0.004037580781358109 -0.004204834231816691
0.002115827247638197 -0.0040298847715896265 -0.0028109928630374796
0.003119645985605314 -0.004287263821649717 -0.0033662752264415415
6.744098333376731E-4 -0.0036006166483109653 -0.002025125188392131
0.004919654922915314 -0.00475635221746318 -0.004986359630427028
-0.002618437797678393 -0.0031350635052825263 -0.0015317392633491576
0.005604799646081615 -0.004416734670836413 -0.005758287755970805
-0.0028503348392365556 -0.0035738482443351447 -0.0019511669655657587
-0.002279678023086525 -0.0036409657413667045 -0.002142930256188507
0.005604790391960118 -0.004090962331018927 -0.005037638173922982
-6.19776349954604E-4 -0.0035956899873747453 -0.00282723122395108
0.006574561458921965 -0.003710683612539702 -0.0036733343180693915
0.0045401757234810845 -0.002848018786680935 -0.004683603307569126
0.005684883884654123 -0.0039803297634901065 -0.003998781430139126
0.005531503063756257 -0.003959986403892335 -0.0041948694732815445
0.005239089497442578 -0.004024892244992914 -0.0043809894483542115
0.0027701080869894927 -0.004244628026485206 -0.0033107482031822875
0.005273397393796397 -0.004456635998904091 -0.005419882667233153
0.005567322249913395 -0.004454296623961262 -0.005742964720457827
-0.0014581296774514555 -0.0035936578894643747 -0.002747642164817692
0.00676055017334044 -0.00352872502670183 -0.004388052292574823
0.006793665103309014 -0.0035103628163743964 -0.00414830005082343
0.006891861967807592 -0.003545960928981345 -0.0039460285985582376
0.001101808471571326 -0.0034576592150596113 -0.00334951090751854
0.006766346511262672 -0.0036341059871287415 -0.0036610799972997313
0.0033151681289622496 -0.003121384355620107 -0.004040237352770164
0.005860596940643806 -0.003844167964962591 -0.004094758962146767
0.004825776546447308 -0.003404169141115861 -0.00440711761886506
0.00533243709655874 -0.003952004273828918 -0.004431755886302651
0.0052311893223357065 -0.003955621842418864 -0.004546500622321798
0.0033078343154432604 -0.004382520123273345 -0.0037210795697294177
0.0039733156321228955 -0.0045480487402331585 -0.0042795172139428106