# vtk DataFile Version 3.0
vtk output
ASCII
DATASET POLYDATA
POINTS 1299 float
-10.470871518119937 24.807441663587433 -12.95701752665785
-10.444081170621619 25.98654085845952 -12.991327945015778
-11.567462489269156 21.83427710789121 -12.45186670909337
-13.050883414450706 23.417995198904478 -12.34404496347343
-11.55552264334338 24.681317666159206 -12.767962068493405
-9.963386032133636 23.75282110210524 -12.910823464432067
-9.786408928019734 25.142840619380124 -13.03105239060612
-9.41629773130518 26.29680093232821 -12.752553029369844
-12.053222692690243 21.11495578331521 -12.21741653490499
-10.478212247140382 22.955736474061776 -12.569572156821957
-9.288098543096929 24.080027654775254 -12.681386400682415
-11.817427140847677 19.998300616405178 -11.746937123654941
-10.944400573106908 20.82907186372225 -12.008848997114589
-11.913078149406509 20.325179678075486 -12.012775463576704
-13.042542315850351 20.458718631457852 -11.449192732757313
-15.698594313317622 24.88569593972296 -12.139822092571595
-14.347942839188509 25.82585949397393 -12.533291381428437
-11.549672863019556 19.469920534835364 -10.908340988059528
-18.335624677165477 26.073341376288823 -11.565573977311004
-16.117289103320417 27.270925885492854 -12.373991169124933
-7.34307144582684 27.590312370072034 -12.166148835102062
-5.761948882458817 29.700108086552564 -11.76361646494671
-12.513432042950743 28.20511867174419 -12.442842952739124
-9.284265272992075 28.89354649241605 -12.366782832912415
-16.59310267824508 32.81805826277572 -11.501402372342119
-11.486642764640445 32.13172157219616 -11.54841794927029
-13.670801788226896 34.18560494486861 -10.722872034084663
-12.339768149179864 16.940805126736773 -9.111462718697547
-12.065416095863407 17.456810028549224 -9.401436669711302
-12.414434275447498 17.834694137115623 -9.754136825337897
-10.685183377235584 18.49411732736152 -10.087786188620266
-12.30228142930432 18.23248421846201 -10.057028412662024
-5.33423706079905 21.98149509256088 -10.154992969955488
-8.021183326648483 24.90024837504253 -12.270737554225905
-18.861091779071284 29.120460396193785 -11.99021114176169
-20.927368575355292 30.80435018404225 -11.592279171919476
-16.73019652332976 29.94370238233669 -12.235163207841756
-10.071474770856229 31.113076797386313 -11.86006640334538
-19.387691936823575 32.28620235949697 -11.666660667689921
-11.872507262153881 16.540536830597105 -9.022886297349261
-12.777932649641606 16.655617381467284 -9.06647257916463
-7.728552977019659 21.913572709286093 -11.089692920429293
-5.5849417594707615 20.862270526422645 -9.675174892942362
-3.6524643481362635 22.940717720927267 -9.189737695050672
-4.921748799743296 22.921825077383858 -10.291634192496414
-16.485157507694083 22.513924991765435 -10.85057135496955
-4.755471445147111 24.424075612282028 -10.55280431782791
-5.255831690612158 27.00476686360415 -11.31408673902336
-6.959424807803942 25.252868919142983 -11.86113306097718
-21.22799536834095 28.41630840656507 -11.054177856470963
-4.40945187027925 30.349076197984964 -11.546774162506086
-23.02745656280092 31.247866909850444 -10.73277021169496
-4.088612041057109 31.438459241516775 -11.566282141800425
-25.98392307178491 32.92603916672734 -9.128963682602892
-21.719373735394502 32.77880117466713 -11.223983913141849
-9.882264568155493 34.79538424380431 -10.241370308209236
-23.390939940809893 33.675486900346804 -10.461234408760905
-18.961635212667826 34.5813899821463 -10.99480710631504
-11.974316086024528 16.375559534064966 -8.917332038879163
-8.681137438566653 19.114799247278192 -10.050271076086887
-7.277412600441395 19.308351098047243 -9.680278211856047
-7.804415269696748 19.898234181121914 -10.377624464927303
-5.9242516386938355 19.520000170106538 -9.17100668703552
-3.860960793896638 24.129841022852677 -9.987314811512062
-21.209243587998863 24.778993166026115 -9.654812245199537
-24.489998523999173 28.633097922426742 -9.319321468796439
-3.4119837717844215 30.373664481355508 -10.824480911749594
-3.748466653090146 31.83030700042104 -11.22514643721442
-3.794553353091541 31.106699816481573 -11.467468170417636
-7.521407570703171 31.344848474818885 -11.588777605481061
-27.17258573942508 34.427285322593576 -8.584661316099668
-24.4784697157322 35.45957895689005 -9.490936464413728
-21.543877554547592 35.47511004664825 -10.301615267642195
-11.865387366921038 16.290014386432585 -8.709395292448642
-12.883995720150823 16.4062188547582 -8.662561315057756
-6.467905304256194 18.997520431688162 -9.238772223927432
-14.574022206837487 18.09796288390591 -8.925620135075228
-4.335017693629583 20.66338124490226 -8.231103642322433
-19.216819774064422 21.104578584827944 -8.546633670613812
-25.509435177828962 25.235932822936768 -7.407406222497693
-29.568280394945543 29.344947194656104 -6.430765403953339
-3.1721359137710237 33.6470067784802 -10.052283121082576
-4.862060904008493 31.993538199263767 -11.29655602529607
-28.615956991992036 33.999154763370505 -7.56995350441882
-29.688439693062328 36.76249605024827 -6.3167652813173625
-26.946929089022998 36.06904229329581 -8.148825161778328
-12.17648211544846 16.17008741496687 -8.280425161888132
-10.241409403987463 17.054283156535682 -8.467359655086671
-6.496478449020086 18.814300181482675 -8.618326204007227
-1.6860833311831052 31.47696872584011 -9.4808864821403
-33.28008067616762 30.784783696191717 -4.741968119972021
-6.095739550118961 34.87163940847276 -9.983383810989846
-18.239330810816664 37.2677429838516 -9.435573743574622
-12.043415829499493 16.024968409376353 -7.671042471088793
-17.399945072176124 17.680037137724497 -6.796367189266758
-2.719037452559891 26.713476000824162 -9.514127461218251
-1.6941888237009917 33.31401176541709 -9.62850654721514
-32.40930711872263 33.987395082428925 -5.054243286548928
-24.539904331711263 38.51328175192314 -7.922246474257738
-21.538948857618777 38.15251102906545 -8.944946833437227
-28.399574386250848 39.50580658412313 -5.8774818109149685
-13.59719719883674 16.122830985747868 -7.2780079144968175
-5.233153854074556 18.5818536602586 -6.372236686165039
-22.655497741565732 22.24452136928648 -7.323105506150234
-26.11988072034791 22.09756161341676 -4.976581623197609
-28.58945342512384 24.915182027858368 -5.418478997997918
-0.4913693080178167 29.396751151072106 -7.943382007033721
-1.3756945919585903 34.45801059746793 -9.02408977500895
-32.35512856862869 39.62126495852957 -3.4233477618411325
-13.498485262594773 39.29331898243333 -7.709554758046821
-1.0987221336416872 33.21155189106028 -9.219720188790104
-0.23363490272427068 33.178358464454284 -8.029257345554553
-35.67865314012958 31.570581699053285 -3.489526493389454
-4.419769316708559 36.83405615331937 -8.76741306956859
-21.962448648883104 40.618651669114634 -6.970034916632905
-30.16224447381948 41.93849840904583 -3.9758062133577963
-27.287822568216313 43.070961597808115 -3.6191571375686893
-6.116732237544116 17.027920157968904 -5.230172440418706
-4.606791605778896 16.99335639631868 -4.170472108104147
-20.837114653942546 18.75569129686019 -5.088200272625344
-35.33723056419744 28.25426528604212 -3.041729262046971
-38.51673049869848 30.79042388909161 -2.1234084844860215
-36.568635989385406 30.181847958297553 -3.088671543051567
-2.3427280493247946 36.50545574768363 -8.488839146944347
-7.254021711651389 39.74978126242762 -6.673596029540343
-31.548475218624866 41.933810680916935 -3.3965279704708298
-30.842666416531973 43.3963535649163 -2.6481695792173965
-11.965215298893591 15.58065252962161 -6.195608376243392
-16.612860243940332 16.803715855516163 -5.968567881253585
-31.545495588846865 25.5878586759338 -3.979554528184123
1.2282420401188252 35.6888875518492 -5.615339400083589
-0.5607593658532795 36.10561816413144 -7.577308516835787
-31.465114685446355 42.86268208884874 -2.9844036769148543
-32.804516175005425 43.46356890984757 -1.3692561839100645
-3.407950349785614 16.964631712152634 -4.126818155772982
-2.1654639232059143 19.147055671678306 -4.750433657314042
-29.889753056028077 22.88012702184833 -3.258625470544998
-41.13063806675092 29.659618158666316 -0.9417328112400505
-40.89422272390246 30.898383354300762 -1.1885145762324751
-3.731993043582471 38.51307941123455 -7.5553379575597175
-32.85015861558444 42.50972581319158 -1.9261970939968625
-18.307402863886978 41.68049413350375 -6.197641349033729
-12.77327318415906 14.9536422163926 -5.083509091449602
-2.8305941386126747 17.442112442050522 -4.1010588611670835
0.17178705942866618 24.314878410792904 -5.808340493664573
-41.7847501086789 28.35886415167852 -0.2545274613260666
-42.891362542270116 30.83951205085155 0.039824787996376586
-0.024228990503096355 37.405287270609605 -6.4608326483002
-1.549649628794311 38.462629023419666 -6.699487066994256
-40.60461666898189 32.363761308080186 -1.107368530920903
-42.48768759539138 33.82055559403312 0.12032438758674725
-3.6215816791962774 40.022570458324175 -6.055397270538718
-22.255524557429816 43.73684354758024 -4.0128124997903765
-32.84038962738664 43.818813551157874 -0.8434291511060747
-31.479966167063772 43.895540730060766 -1.2584135207018918
-8.667174192411002 16.03420131131477 -4.7863437303183
-3.059712386350775 16.961888235910067 -3.6561620371759775
1.2121146492294235 31.206621008078336 -6.175442679926193
-41.636928493141625 26.86187913824759 0.5345807161563555
-39.60603109505159 28.1337181918082 -1.1040586514200916
-42.46255302545557 29.23723613984468 -0.1565319754114514
-44.37478723779995 32.25423709357828 0.9593949534395378
-44.92133612292685 34.01227901035196 1.5122402479990917
-37.71156635039994 35.38797326066773 -1.55945815007814
-11.957136378501152 42.93264060282857 -4.301676470184372
-15.467790164513035 43.04471718414046 -4.7224807677621605
-11.585003721947166 15.03984747150918 -4.944024112322724
-12.766872025072082 14.744757476129916 -4.417960619586383
-3.9263274436160156 16.510889359178964 -2.6936622054525614
-1.3949282667530971 17.974279788719276 -3.0570531857163226
0.26897290666331025 20.507034164710124 -4.175195770029547
1.2472197635352567 21.883777098698484 -4.465893052164221
-28.822362052742697 19.479716198860903 -0.30821307378075563
[...]
POINT_DATA 1299
FIELD PCA 16
mode_1 3 1299 float
0.0026263613935865013 -0.0037901705544265275 4.721473012315253E-4
0.002672031387244789 -0.003899029317409168 4.2328832099667446E-4
0.0025746370190417593 -0.0034824318351325476 3.430246061616362E-4
0.0027066654244482 -0.0035904294511562014 7.093803750641435E-5
0.002678630549537415 -0.0037301853407529775 3.1551226469592403E-4
0.002550687107830505 -0.0037222962406430614 5.590519431114925E-4
0.0026022246537134356 -0.0038634668813135433 5.314121569370252E-4
0.0026003450415488963 -0.0039875451975265016 4.242451319133748E-4
0.0025844068491268574 -0.003405469580534967 2.412138429247324E-4
0.0025305831602518173 -0.0036244088430333016 4.450125288117075E-4
0.002493318343044821 -0.003783661644680625 5.402533267597284E-4
0.0025262094830360436 -0.003315164578020673 1.5879331046808614E-4
0.0024788999409795644 -0.003410193408158699 3.1778878948721887E-4
0.0025498942736596883 -0.0033373939542730427 2.2561434337011927E-4
0.0026138912896951924 -0.003352258212832512 -1.1906587819266358E-4
0.0028570722012897687 -0.003659803004912499 -3.148364104882107E-4
0.0028419194561740656 -0.00374667818504156 -8.396251682433266E-5
0.002461818393394759 -0.003296665915784967 -8.792059116713553E-5
0.0029544081878755523 -0.0036938958667418966 -7.295819279464424E-4
0.0029362847691620417 -0.0038019609246496377 -3.0930565551730326E-4
0.002463299057090591 -0.0042400725826434085 3.5314683381880993E-4
0.0024130142040396847 -0.004570905000735591 2.255338000007634E-4
0.0028313324636689476 -0.003951732044329812 1.839828122337133E-5
0.002686617821473038 -0.0042099924249136035 1.851152196338236E-4
0.003086018730168056 -0.0039994626107224965 -5.396006606627029E-4
0.0029163462967218695 -0.004217118467044633 -2.7707670854751777E-4
0.0030313156638272134 -0.004149510003389299 -5.928282353177844E-4
0.002445907122681412 -0.0030387522423053264 -7.661593399676523E-4
0.002425714475486221 -0.003098470704084361 -6.310900035698072E-4
0.0024810441373789814 -0.0031404983494798507 -5.518094988027408E-4
0.0023310811148536887 -0.0032045305049770417 -2.2896576940557276E-4
0.0024865488314409533 -0.003180805904471402 -4.4090099409621467E-4
0.0017206757515696336 -0.0036667828651083976 3.478523443078107E-4
0.0023989641601431643 -0.0039324542218756725 4.925214169315923E-4
0.003046104606281632 -0.00383518628569884 -6.248120763759983E-4
0.0031125881748653296 -0.003862581223717346 -8.382410402377813E-4
0.003021790645785599 -0.003912365707205525 -3.843460441089245E-4
0.0028152391959194605 -0.004281277012190358 -9.448563087386076E-5
0.003130370186799121 -0.003928940419751583 -6.812133665825414E-4
0.002405593488521724 -0.00298307332986745 -7.329626624011247E-4
0.002506532993756194 -0.0030105706702423063 -8.405711648807957E-4
0.0021362483977494027 -0.0036163893706083355 3.462801727646818E-4
0.0016668361900073017 -0.0034981454224748024 2.2237532612593813E-4
0.0014127449620460932 -0.003809269532637058 5.671427854491119E-5
0.0017286939375105385 -0.003811232429721914 3.688597676082678E-4
0.002810916087838043 -0.0034995151657432133 -7.530375207692619E-4
0.0018301775254384036 -0.004017059950079607 3.385575886948484E-4
0.002143166195579785 -0.004318121676320715 3.118441668588514E-4
0.0022878984855049145 -0.004032302433405741 4.464738444629365E-4
0.0030554925577689985 -0.0037615164508492246 -0.0010582598794802852
0.002305764353337788 -0.004774820490903585 2.1061814553842447E-4
0.0031254971980553482 -0.003823711018983635 -0.0011456614377120028
0.0023533654262827023 -0.004927069842649239 1.6190953947797397E-4
0.0031496968045351256 -0.0037682570470113945 -0.0015451107478308432
0.00315845232268984 -0.003897280424834093 -9.079724845502423E-4
0.0028817401314130396 -0.004425944053773154 -5.710099388336922E-4
0.0031706832210782942 -0.003868585281996952 -0.0011184921835461408
0.0031744955830927796 -0.003978231018140291 -7.785481964778828E-4
0.002422970221746598 -0.0029752698826829393 -7.911483161085198E-4
0.002112240251850599 -0.0032731487873170623 3.0383956453713414E-5
0.001881809531775095 -0.0032852787915652816 1.119231582886327E-4
0.002039701469538714 -0.0033601820541316065 2.5566800234711926E-4
0.0016282487815754525 -0.003301823191282981 1.06822779518582E-4
0.0016199190656863893 -0.003992751994656064 2.737587703720875E-4
0.0029830149170505856 -0.0036076788979733966 -0.001545114701238754
0.00308658004850398 -0.003697118002713732 -0.0016959125594217873
0.0021125949792592173 -0.004797907233781201 8.551898731738572E-5
0.002308896918060287 -0.00495746658713674 7.746977410583476E-5
0.0022863803012595843 -0.004918335709992347 1.7682007609313343E-4
0.002640115343643958 -0.004508359200433519 -1.1780380128541677E-5
0.003157778461292932 -0.003757520182534888 -0.0015846911947971494
0.0031915744685253058 -0.0038440228476102852 -0.0012652133340913438
0.0032016554956933387 -0.0039215504232841284 -0.0010042841504114342
0.002408288989248217 -0.002986246325156035 -8.652700466656355E-4
0.002517850708106421 -0.003026896921617159 -0.0010248626363137273
0.001707114590829977 -0.003227498957088271 1.1378361538577473E-4
0.0026386048408560524 -0.003221941022996344 -0.0011333743873093466
0.001309859610715011 -0.003466019167925359 -2.4721411036260317E-4
0.0028880777515732097 -0.003466573565368814 -0.0017718448752591582
0.0030761915154155616 -0.0035938092491368326 -0.0024924387971931895
0.003156876438744026 -0.003577916633950933 -0.002582899533543303
0.0022652636866965863 -0.005031017097461455 -2.710134986463242E-4
0.0024371403898815897 -0.0048408592027448585 2.701678441289744E-5
0.003165880057265276 -0.0036888222665608316 -0.001862028200316261
0.0032065814079929515 -0.003651420292672489 -0.0018606880567805175
0.0031857376962949667 -0.003760836252093306 -0.0015437603337748718
0.002434394078952186 -0.003026830526813397 -0.001090024076173993
0.0021698368860855115 -0.003072023155149734 -7.5886129437436E-4
0.001642434396973395 -0.0032151018865593417 -1.9289657976769212E-4
0.0018382875027732205 -0.00493480516372731 -2.407967492598763E-4
0.0032039844884073176 -0.0034615464284360777 -0.0028864921123202365
0.002625271660015654 -0.004782266666467445 -4.72521471256586E-4
0.003196485512479454 -0.004007111446098715 -0.0010493557744905876
0.0024004900652424555 -0.0030691400640054964 -0.001330157960059023
0.0028104731439433832 -0.003349902662599445 -0.0022050619692603364
0.0015724839238419677 -0.004331650441468955 -4.1672623364267875E-5
0.00202241695138444 -0.0051366367207353065 -2.850014519649345E-4
0.003217782337334273 -0.003522672468618851 -0.002403775470579618
0.003238150371549052 -0.003811288020064375 -0.0014073765773633968
0.00324317903926383 -0.00390946905828234 -0.0012059329644455343
0.0032403924006356916 -0.003675591485462203 -0.0017243525620654994
0.002558523889382752 -0.003151699994942844 -0.0016754784223088138
0.0012154543917992978 -0.0031703768298738328 -0.0010654992288460685
0.003008456183330241 -0.003546230236452883 -0.0024573711092092778
0.0031266382863164 -0.0035688553052168827 -0.0034086197013302156
0.0031501601819878726 -0.003557072030213332 -0.00326612164614705
0.001299031560542098 -0.004665332591748729 -5.826677468052457E-4
0.0020367406873199848 -0.005194631568559322 -4.894525173367758E-4
0.0032985704473011378 -0.0035229850100912613 -0.0020693745558054226
0.003108020280190836 -0.0042191848807313055 -0.001312022471209138
0.0019001594835946843 -0.00514747022624269 -3.6034476813025126E-4
0.0016684468474413609 -0.0050837666444210365 -6.648223049900024E-4
0.003252136811898357 -0.0033704916442565563 -0.0030567004464828393
0.002536179005252748 -0.004984063221714739 -7.75244062491752E-4
0.00327174014189152 -0.003844907587207193 -0.0015179063208610323
0.0032726952170046906 -0.003594330274306136 -0.001861624054713968
0.0033036956006956444 -0.0036138496498666762 -0.0019245593413117182
0.0012650890605971365 -0.002978072914927012 -0.0015352782763804317
8.714391886300646E-4 -0.002836230467436814 -0.0017488836473187922
0.002978853632419451 -0.0035077743110603016 -0.0030120296529529056
0.003278922455456542 -0.0033650560411562207 -0.0036036860526643755
0.003318122100124157 -0.003238568240227035 -0.0034283142530133716
0.0032576387617026577 -0.0033190583317253605 -0.003349000937832372
0.002293244267442722 -0.005168587490630592 -7.61246741708718E-4
0.0028106070486233763 -0.004673176105611296 -0.0014006264213492256
0.0032818763946236 -0.003557891816120633 -0.0019074750301990983
0.003317376163179969 -0.0035406847912537796 -0.001935063725008296
0.002343586732221289 -0.003144434590941625 -0.0019273714355571563
0.002774060779883921 -0.0033587870315883546 -0.0024454645075348653
0.00322838589853179 -0.0034996213221545067 -0.003678098920166498
0.0015348442406996848 -0.005183272153621347 -0.0013693317898824775
0.0019780448319366988 -0.005239777208681747 -9.122447698377437E-4
0.0032956585473238142 -0.003549455469858398 -0.0018980465512013446
0.0033681023650072293 -0.003471399871088063 -0.002016005738455415
5.520711902432411E-4 -0.0026725680064107267 -0.0016335508967362875
4.3746473059032027E-4 -0.0030755568080193907 -0.0014920724817240212
0.0032398377719373363 -0.003549167369301927 -0.004059236235589827
0.0033977881048608814 -0.0031063226399725423 -0.003802403905401758
0.00338460525249941 -0.003145464642655227 -0.003549143586212133
0.0025243003238757064 -0.005045422098878089 -0.00111045212608149
0.0033460028365106457 -0.0034878429852696646 -0.0020069028272406485
0.003256618328486586 -0.003944353772121081 -0.0016725219339783401
0.002455554177926984 -0.0032392380827155373 -0.0025149816077101594
4.385990709716667E-4 -0.0027383619686737566 -0.0016526181414113967
4.178395824944606E-4 -0.00396090130088771 -0.0012062593701182027
0.003457541289525061 -0.003062339719166886 -0.0041244545743402035
0.0035191202075235016 -0.003097618099600657 -0.0036904751918339787
0.001961640099503292 -0.00526788413548853 -0.0012312711926356205
0.002257242858877613 -0.005193083656555741 -0.0012450930645746471
0.0034034294792503685 -0.003191520961498041 -0.0033213889144576712
0.003534135432126548 -0.003186623210048802 -0.0032183489671774616
0.0025427052116135627 -0.004994796683676253 -0.0014933090955766427
0.003300331682041311 -0.0037338956321518835 -0.0019939509922198007
0.0033949936798045866 -0.0034480243355785077 -0.002064908739999485
0.003381473977781825 -0.0034736968191184333 -0.0020668345113328537
0.001744653055820845 -0.0030616630928687913 -0.002007646903402953
4.525082690368242E-4 -0.0026576283493408123 -0.0018045218068113867
0.0010581134805880946 -0.004834181049703963 -0.0011221080472226224
0.0035420645721040526 -0.0030926090420840065 -0.004470195801823928
0.0033899785710222357 -0.0031645681281213564 -0.004029197461318043
0.00347247262112388 -0.003051218509062014 -0.003974537668008892
0.003642907274802499 -0.0031192984903929337 -0.003520745245398619
0.0037160541691424872 -0.0031607300553233137 -0.0032813363130739987
0.0033838294619343277 -0.0033181113606976335 -0.002816819814363123
0.0031020262730980758 -0.0042386670227383865 -0.001997556846284025
0.0032218095231171854 -0.004031995401985393 -0.0019494003109547496
0.0022729346247356286 -0.003183379028301647 -0.002412057830095085
0.0024474392859817847 -0.0032821944054456063 -0.002780083101992677
6.505195558552752E-4 -0.0026996668409064073 -0.0021998961365156285
7.93744686645684E-5 -0.002790134498579266 -0.0020826921830989133
-1.505032040973536E-4 -0.0032468560675625283 -0.0017535784002814575
-2.886406632917879E-4 -0.0035160650097974186 -0.0016904848700272476
0.003357859226866094 -0.0036687887115917943 -0.004930208730125432
0.0036879838919004816 -0.0030579401291588723 -0.004606506457138054
0.003895797367917826 -0.003061419675658349 -0.00391498714249037
0.0036053251930566 -0.003195836661526932 -0.0031179924737107685
0.0036354554232920044 -0.0032237898367649034 -0.00291865903012619
0.0033800909498662305 -0.0034594373305251867 -0.0021693397222361235
0.0033345773378242343 -0.0035037698729147274 -0.0021568548633348183
0.0022344904567685015 -0.0032473523950111273 -0.00282112701797985
0.0026277461330045633 -0.0033708326846924987 -0.00288610475776799
-5.112865399149407E-4 -0.00332479360870007 -0.0019719302477309996
-6.421013832437372E-4 -0.0036246634501454376 -0.0021642252222822027
-5.146389564291148E-4 -0.004023471391842048 -0.0019838113727072043
0.0034150689462429146 -0.003472678779729548 -0.00473027584106138
0.0035041828584914912 -0.003256694629878442 -0.004616748626744169
-3.4097909362455184E-4 -0.004629637221888894 -0.00219917032438066
0.001981737873416836 -0.005229882391263471 -0.001568530571161847
0.00229637142483963 -0.00505788383872001 -0.001869711354047724
0.0038381648773455745 -0.003191887928001467 -0.0030414804824997854
0.0032723909297497716 -0.0038149656033871476 -0.002233007129714783
0.0033159426880774515 -0.003591615192951014 -0.0021893990562883415
0.002483236616762521 -0.003374942400967974 -0.003156066302515577
3.5776115868107274E-4 -0.00264091217484655 -0.0020949472582109034
0.003233717237530949 -0.00381700834109707 -0.004788396387067532
-4.499719251583864E-4 -0.004234211584490276 -0.0019939599912798174
0.0037554997429608663 -0.0031663977850556217 -0.004924183568565848
0.0036192908635584234 -0.0030411682519159763 -0.004226479286478082
0.0016659408508593815 -0.005196308948409899 -0.001965975327274511
0.004019641474744203 -0.003136788387904015 -0.0033260819692750195
0.004280393889423321 -0.0031577369246272133 -0.002992899052545851
0.003997199402859585 -0.003184121850275685 -0.0030135107589899846
0.002622184475477061 -0.004825375861762737 -0.0019206087412957742
0.003932945696101591 -0.0032080494896046053 -0.0027474538460125993
0.0029642769044355044 -0.004394960424880991 -0.0022135141618477047
0.003297818990762471 -0.003598289332197067 -0.0024273611123591453
0.001966869139941592 -0.0032089587280618587 -0.003041860582552061
0.004253725467778118 -0.0031177483297739205 -0.003341067888888161
0.004546037852871917 -0.003158690679719404 -0.0027457812838224006
0.0027831024822661116 -0.004589380052434575 -0.0022096556963411527
0.004334815183870215 -0.003167909670290978 -0.002549510153961571
0.0036029420706948406 -0.0032535990400877437 -0.0023523416955231985
0.003418234966293885 -0.003212473451540255 -0.0026153786229977274
0.0033528357594533736 -0.0034267665272788247 -0.002397077018337639
0.002346888950829523 -0.0034027652424206793 -0.0034605166293509263
0.002612338004026144 -0.0035325890444284913 -0.0036671307249285905
4.2224794687156444E-4 -0.0027056858417826243 -0.0026481590363189047
0.002918708243076265 -0.0035997770595266564 -0.0036666571604461176
1.6185351174282257E-4 -0.004984620401172735 -0.00226003381768217
5.060439751497649E-4 -0.004808268677517276 -0.0017211473443241067
0.004486569875615203 -0.0031011184638193357 -0.0033234533684181685
0.0020048742841789545 -0.005175049104643342 -0.001928904910345225
0.004804441088161518 -0.0031127269032062083 -0.002973287632339549
0.005387392847622801 -0.0030873779707783016 -0.002584026530721358
0.004814441362756743 -0.0031423877320258062 -0.0025191038932523115
0.005172135657068816 -0.0031237373168540674 -0.002149802065807066
0.00468800197830355 -0.003113387803691351 -0.0022029885984561374
0.0039974744043754585 -0.003193846206355312 -0.0024664874999675832
0.003639932567640764 -0.003629739141386213 -0.006097778906423947
0.00394231855111553 -0.0030722330317619457 -0.004569581278135403
0.00409736649434029 -0.003031711882299619 -0.0043080710367512706
9.90587402487308E-4 -0.0050410068204759665 -0.0015745332174058838
0.004187878363083061 -0.0030374527874387886 -0.004084537510318194
0.004296881466099419 -0.0030719442583359738 -0.003720906573485062
0.004860176084346425 -0.003049978684397907 -0.0035751753710622763
0.005291525973704488 -0.00304860534167589 -0.00312297876951203
0.0030625099170031944 -0.004149513889517868 -0.002547422261425746
0.004926074418391656 -0.0031166379943045014 -0.0020555688190108503
0.0031847233869623493 -0.003955115035711177 -0.0024631497702444316
0.004822105672726379 -0.0030729238897344857 -0.0020011351694091154
0.0025195631070106766 -0.003596462057407313 -0.00407237121916693
0.002802321545861776 -0.0036315193588034997 -0.0038840006315371805
-6.670642562165828E-4 -0.003047593994155062 -0.002600539661623415
0.0037938467828246177 -0.0034254511031184885 -0.005571311897498658
-0.0011072441107366987 -0.004233809628701381 -0.002823918078553712
-8.694248175479213E-4 -0.004667423350510113 -0.002658972480267198
-6.853526237694267E-4 -0.004842441513591443 -0.0027162585289763207
0.004493387681707312 -0.0030777486094848 -0.004352789082252156
0.00414702445318612 -0.0030263050785868492 -0.004207185156734899
0.005603594292734027 -0.0030971412077125024 -0.002139317081850687
0.005644750821293432 -0.0030843899613136865 -0.001959029911713893
0.005469872519416576 -0.0031182275732960295 -0.0020141532516672936
0.00507587666593615 -0.003075082352128466 -0.0019299450122320276
0.0042186331015776 -0.0030976504668616235 -0.002255473416498664
0.004868527461490238 -0.003018461116362604 -0.001898352075346326
0.0029976974220336464 -0.003838559523140826 -0.0046566181195396
-2.9014574907536836E-4 -0.004956149471216431 -0.0025914513994981575
0.005264948369544578 -0.0030089133325430658 -0.003951194865657556
0.005417954785584779 -0.003005089578066063 -0.0034662198621468357
0.0019415142678256754 -0.005033552764839026 -0.0024010670691484754
0.006002080013189278 -0.0030204360937216893 -0.00228055798616634
0.002453396103923364 -0.00468856862255359 -0.002636186432202503
0.0058482895251186886 -0.003048964193273448 -0.0020182789656496064
0.005804581673023981 -0.0029817833700939134 -0.0018538348078964296
0.0054237198775427065 -0.0030833651819971476 -0.0019242488502473744
0.004065512337597464 -0.0030354622870509317 -0.002205419378504994
0.0032159394090999424 -0.003668593169095786 -0.002774179301114659
0.0032741565808697645 -0.0034014199883956966 -0.0028479246928037726
0.003340380627763003 -0.003234034849163071 -0.002791765621002595
0.00504851719927362 -0.002979060830885424 -0.0018006494386992083
0.0021439926166230646 -0.0034009032601955242 -0.003814578408203826
0.0027483365279176246 -0.0037049305854228542 -0.004248763887598125
0.0013172733569741916 -0.0029855021157361972 -0.003099440225700753
0.0034566530470039524 -0.004168628337558164 -0.0057206395833562275
-0.001137212282177616 -0.0028995776152661835 -0.003452610621241797
0.0037640689193497493 -0.003699917557445957 -0.006765526457643479
-0.0015093143671664803 -0.004427121364877791 -0.003316541774613243
-0.0010752374263221908 -0.004758993326140947 -0.003030206018169362
0.0042127334141480255 -0.0032862646831036666 -0.005233160445293523
1.7682728673400208E-4 -0.00511286316901843 -0.0026875822875661584
0.006065877614068149 -0.0029947205984294433 -0.0020162051405785684
0.0031316772252617526 -0.0034374134873740685 -0.0033485674365837104
0.005351563629784282 -0.002999864828931244 -0.0017954799804981738
0.005235925913359593 -0.0029160742258436557 -0.0017086608462509522
0.0048549465197823775 -0.0029396587621774647 -0.0018309868901031498
0.002455357560481151 -0.003620537030799166 -0.004302770389159938
0.003631997693510208 -0.0037926373172703 -0.006328719727545422
0.0037289238476617094 -0.003754713950067667 -0.006771679141495865
-5.711490246873796E-4 -0.004902525501072703 -0.0032452420688480945
0.005458507804357146 -0.0030072102689866678 -0.004136282642933787
0.005679415538761942 -0.0029810302271148833 -0.00359408481849979
0.005947189463552716 -0.003003838087834744 -0.0030160261622449156
0.001503970672870411 -0.005125065991395588 -0.0023983995300573342
0.006202946222709187 -0.0029756471578625504 -0.0020856399512539305
0.0028291252864707447 -0.004304480013447342 -0.0028118983364374293
0.0055508926929613706 -0.002877889792648116 -0.0016787817418450247
0.00348485876410269 -0.0031198134668561418 -0.0026115979644393893
0.005011970628335569 -0.0028509340123521283 -0.0017104247826448525
0.0048223679676662095 -0.0028520333137784823 -0.0017956992544846018
0.0027254093607401602 -0.003779876927418003 -0.004644720983777576
0.0030198380571106204 -0.003959481262971533 -0.005124977547342629