# vtk DataFile Version 3.0
vtk output
ASCII
DATASET POLYDATA
POINTS 1299 float
-11.622955876394073 26.101699791575086 -11.784083000755542
-11.54423237475362 27.356435937139338 -11.763183268421647
-12.840231705181777 22.927838372594742 -11.401315271080223
-14.277455616071483 24.643902982462446 -11.196412058218417
-12.724754545547603 25.97565194374945 -11.587028327446331
-11.143224764061873 24.96570378568605 -11.794346184110738
-10.910744881150785 26.45217304600189 -11.848231605859485
-10.440598160137379 27.636449077040417 -11.527750932034328
-13.353338618089031 22.160836389023558 -11.190308756016119
-11.668405988108242 24.09606869561863 -11.486611193051079
-10.397378089457407 25.269705941003085 -11.563778934715225
-13.111412401345008 20.92837347563789 -10.774614972425507
-12.190577636048275 21.799155290722965 -11.018826583466545
-13.225598682922802 21.30057553401396 -11.024784113831274
-14.322149566050507 21.442986877405673 -10.427439206977986
-16.89386566173524 26.247997315440962 -10.893552924949484
-15.508071141608543 27.235323537050014 -11.261541398370413
-12.760137818831897 20.29295714049607 -9.957711772986286
-19.4593914169198 27.503197769680927 -10.267757160361844
-17.223036648479933 28.77577214341612 -11.03308864507669
-8.172173835083012 28.896389849690458 -10.918924053385263
-6.407534133847934 31.057669490694494 -10.441993707610642
-13.503529206283613 29.6834734013262 -11.113476102835493
-10.151159667095753 30.34621291028241 -11.036032316853152
-17.340933574416415 34.485997223869845 -10.012472809204983
-12.194547734319316 33.713907648639875 -10.105199200026167
-14.24791063017998 35.809767923235604 -9.235742701005083
-13.505821693313983 17.485921228124774 -8.219144441370943
-13.225460061291422 18.05134471379226 -8.502779668114107
-13.612536707005447 18.499631517733974 -8.841160095957477
-11.807582605593192 19.144065657974625 -9.192321112962652
-13.510949027473472 18.943642627120603 -9.133497640256953
-5.9928335577768825 22.6088120530394 -9.254899201741367
-8.995832674797512 26.063931742961273 -11.140476952475426
-19.880578609682217 30.718361124757806 -10.581984973225197
-21.849671643868664 32.45512770054417 -10.147625712617932
-17.694806835964577 31.561480582844577 -10.806861117553332
-10.820201550704773 32.652149982493206 -10.45040447622187
-20.218668821712434 33.97947329740769 -10.176525600205578
-13.028225412497227 17.020847987093724 -8.153559873817045
-13.978541085330784 17.196233659233823 -8.171585715751084
-8.65919716044843 22.74174201548492 -10.124369123443694
-6.237365423493832 21.374544794579357 -8.819194692536257
-4.03844570804898 23.46257640506189 -8.253248150896285
-5.5436571693877745 23.613163119035676 -9.352997427284818
-17.683238117889555 23.682180974288485 -9.69709073579648
-5.3591392322146065 25.24328935182637 -9.53453542065728
-5.908167733939817 28.112494248013473 -10.137531985108753
-7.825577136097155 26.363761266962676 -10.736648256926967
-22.221147937059904 29.942509697055815 -9.696411032498995
-4.952539110149398 31.691877974293796 -10.206962483286446
-23.86286022398675 32.84800341070746 -9.32554843256789
-4.589548529080724 32.849982148792435 -10.174413338310675
-26.601020980094475 34.42551273259505 -7.782972062939938
-22.511947117408848 34.465119145889346 -9.745164503825201
-10.336091331845724 36.34590917798601 -8.77246332415121
-24.079018954383205 35.31815697862315 -9.009947807876141
-19.60638425729955 36.29684922152615 -9.463857606837298
-13.137116506220222 16.845478996836654 -8.04634636031072
-9.664115415877243 19.703851335251308 -9.187214269050859
-8.111325721131172 19.80030540194371 -8.854162161735374
-8.739079753346157 20.5205024071388 -9.515333885462354
-6.586535367823317 19.90559058818543 -8.371514397959688
-4.340485315871775 24.82671671279582 -9.00682155473035
-22.2485963580797 26.083799186802914 -8.418017973549812
-25.32658365039848 30.060410957631767 -8.027508149909663
-3.821013064598259 31.57946095983769 -9.525864733367287
-4.1863997092814955 33.2019970428272 -9.839770428884552
-4.27888315694795 32.47447485670797 -10.096874940255091
-8.159926313537085 32.81499551532606 -10.198624091644048
-27.676646016648093 35.89178486225431 -7.2556881666731075
-24.997693215361654 37.05230741937081 -8.051602081002937
-22.11010766431341 37.1574824983519 -8.79063665388443
-13.011731673830171 16.744779527293097 -7.835179221305118
-14.074964019034164 16.92849591095821 -7.756067460744931
-7.1991408528872185 19.379382905638305 -8.455636110433987
-15.766185651483012 18.848597766020287 -7.934545641647283
-4.717631912005259 20.976808918852747 -7.363892370348841
-20.324586606920935 22.172364773845402 -7.4010299409600115
-26.340188329002135 26.492672544149013 -6.199867547110859
-30.109498347930785 30.596556947413116 -5.25603630458423
-3.4224729038819355 34.925781584296466 -8.672389750913046
-5.352401500012496 33.41071591704796 -9.899897840508826
-29.058063607272853 35.36790547973415 -6.300909335323714
-29.925495402633576 38.051370549691164 -5.047467269948091
-27.340353288780253 37.529785012532834 -6.789231291965844
-13.31545904359383 16.631175740666087 -7.383577391583983
-11.233637771944222 17.481661011228823 -7.595476829822913
-7.159192290455522 19.147386325714912 -7.8056881912306
-1.8335434227051108 32.49045995786319 -8.213797103392377
-33.604025999444545 31.891255266009857 -3.6758788692864184
-6.42806230951802 36.31059295850167 -8.544958688586942
-18.614195220424325 38.93765873741964 -7.895285743470386
-13.13957991732471 16.4643286645577 -6.755025772845459
-18.526169594203925 18.477531038705308 -5.719814349741868
-2.997866468567886 27.484337322515216 -8.410089315389131
-1.8343863460498262 34.45444316739163 -8.294221119577736
-32.65973698512736 35.12842095301285 -3.920061579147966
-24.789591061399328 40.047475951738825 -6.460108119786285
-21.85416018201436 39.79980582287434 -7.4144361742659495
-28.482647368119004 40.82474010826087 -4.5269235908149135
-14.741045123738235 16.655894593503408 -6.307101099123957
-5.549197984287877 18.710021530324603 -5.478073700488915
-23.631774882866175 23.393882772921916 -6.133403524302482
-26.90406686050894 23.22587962071021 -3.7784500769286686
-29.249275208192376 26.106299768436177 -4.247126819530367
-0.41139221800527304 30.04410536198411 -6.7818233911072365
-1.4366122615414458 35.56368153607792 -7.686055324037706
-32.317397973390946 40.70104098588503 -2.205274125871004
-13.622989340386408 40.869127576959464 -6.1907086494909755
-1.1726787093738003 34.26385535387448 -7.913809477258922
-0.15703233441559988 34.03140001287838 -6.7787594446447645
-35.86691851788279 32.55948243407518 -2.496793646454365
-4.543333761338395 38.170141625535564 -7.337029812629388
-22.020315994779967 42.17784430083473 -5.452172193426799
-30.022619076308096 43.10529356098084 -2.6497112482366645
-27.073193076185824 44.34635172083109 -2.215963793143127
-6.472894345882535 17.07809511864834 -4.329689347332246
-4.711821697347382 16.902427508503038 -3.2494801644537334
-21.827509373655918 19.687770243446693 -3.918171901716467
-35.59240483894167 29.26981051049608 -2.0290613625415377
-38.592936368629736 31.64957977148105 -1.226225257139287
-36.75325183537511 31.136909606051912 -2.140083360390394
-2.3803813730000876 37.69336896814648 -7.106155041224637
-7.244393853993065 41.10904236626507 -5.235010282072763
-31.39192803104305 43.02055546081809 -2.113265483370872
-30.585844894603152 44.48955852529583 -1.3234513806510715
-12.978407456871434 15.972512575934896 -5.228013368905043
-17.730764988912412 17.516645271855566 -4.8866936136011265
-32.024962004249794 26.722439183854803 -2.8501020722229637
1.5442356830326702 36.31378889752222 -4.406071888650125
-0.46170977848585126 37.06836342501492 -6.2705829405251485
-31.248481896951393 43.93483375758668 -1.6832119475474727
-32.52768078089102 44.44169322346429 -0.10861745713674108
-3.3181429918053666 16.739547090291627 -3.2461844451982516
-1.9487922398718394 19.022040327712592 -3.79349593642986
-30.4602897221367 24.000829575771153 -2.075933219884847
-41.10532531771336 30.41733628691534 -0.12317044620348112
-40.87026603806304 31.647621362694043 -0.3619542953801507
-3.7150288000388314 39.75487257671368 -6.1448712637710265
-32.638306263799024 43.50557086288074 -0.6819894039619111
-18.245463031354543 43.25743597635032 -4.66065704404785
-13.810180258005772 15.350249293082445 -4.061530488601991
-2.6583016862203452 17.213353912678514 -3.1904484077206483
0.5665935183427114 24.42865546720332 -4.7376787146523345
-41.72510442083657 29.11340151617903 0.568483128529996
-42.76780709071372 31.509413563905802 0.8580161134151966
0.17530285230650144 38.26735676635181 -5.1807332986269214
-1.4207950816516186 39.49176639260155 -5.363567066557409
-40.55799462579646 33.106461890966806 -0.24594561624885145
-42.33251386925384 34.45708490032075 0.9864781452505172
-3.4982547512455793 41.16829439249361 -4.681928854420032
-21.98934458558767 45.180811324524534 -2.5226964202565427
-32.53199222806954 44.78598368707601 0.41845651941605555
-31.16857995265096 44.93441713911504 0.04076914933555358
-9.315226586732495 16.22579623057575 -3.820136523270444
-2.9066910052328847 16.715994926492165 -2.735223882728067
1.5527574983089611 31.66284476640078 -5.024393287475327
-41.56507347034213 27.655230449790427 1.4217034520053542
-39.64918732558931 28.980420462468928 -0.21834696945573195
-42.37215125752192 29.94813162900086 0.6447305769292475
-44.16854334308313 32.84203768189664 1.7941524014833579
-44.674115458715065 34.549801224265394 2.371009191369368
-37.6795318078611 36.23187990814426 -0.5689741007539929
-11.741870655211109 44.37196440888209 -2.8338131830530524
-15.260619868415482 44.56939720488577 -3.209629532863055
-12.52998318584088 15.364271338125729 -3.9405638944499506
-13.785978545005664 15.132659603640532 -3.368660358525095
-3.8992271038322057 16.336413862537903 -1.7045036291146587
-0.9840682302017284 17.696562587663966 -2.0040926577478766
0.8970466068986418 20.29035392308049 -3.095649367982243
2.0038659505373415 21.697502531300298 -3.35324062999763
[...]
POINT_DATA 1299
FIELD PCA 16
mode_1 3 1299 float
0.0014865884305907706 -0.0032853324145794985 0.0016169828799212356
0.0015710165185958257 -0.003456437158265701 0.001568238447460354
0.0013190405966724294 -0.0028095387977919235 0.001535412989337179
0.0013739083678544956 -0.0029630261883066703 0.0013707286568089832
0.0014557758488655957 -0.003195386344118992 0.0015254770617116073
0.0014418148781421487 -0.003180636034295656 0.0016630746192897803
0.001537026880049137 -0.003394736093736735 0.0016346814526355799
0.001687168992776291 -0.003615382282887794 0.0014716702776418492
0.00129786897855062 -0.0026835492431993456 0.0014575604088593152
0.00141408824591858 -0.0030413740284806687 0.001556869567658024
0.0015303957836814643 -0.0032950218335835906 0.0015693639050338834
0.001327592811868322 -0.0025467767558384345 0.0013225449033087042
0.001356006042190714 -0.002715488034758926 0.0014233645118671664
0.0012943422896804489 -0.002580898213377734 0.0014167410701453938
0.0013572307907472774 -0.0025752692361133553 0.001127311782322592
0.0013638639102202 -0.0030619041868337198 0.0011641205038293962
0.0014250624271938198 -0.003213308348077411 0.0013142634484715086
0.0014513423595238003 -0.002515972011618056 9.912031117597039E-4
0.0014097219136681037 -0.0031476545034269123 8.756655448211454E-4
0.0014479803943280958 -0.003319743471670568 0.001184644520690341
0.0019709037904751844 -0.004066826224933982 0.0011902508668729897
0.0022693007761599568 -0.004629095394265777 9.085053712934709E-4
0.0016999659368058466 -0.003596887560577423 0.0012452716152914242
0.0019507965520101835 -0.004013025136725722 0.0011826406028510245
0.00191607458424399 -0.0038148602530344365 8.034777541809062E-4
0.0021555810962287764 -0.004146180004065717 7.682822635765986E-4
0.0022615040089861566 -0.004145432166077656 4.8340599563412897E-4
0.001593252967231365 -0.00206265950898045 2.4201791689138622E-4
0.0015697242464380189 -0.002171756576248901 3.7554114463411194E-4
0.0015432775782406821 -0.0022314115483737153 5.217066670833764E-4
0.0015490086276839753 -0.002395337850322785 7.014402393476626E-4
0.0015169360708897532 -0.0023011196644529756 6.461791892519605E-4
0.0016839055281015142 -0.003365193634311788 7.810273847381898E-4
0.0017149061618168414 -0.003562550072770108 0.001386649979105451
0.0014826982396224954 -0.0034280422024825174 9.86420873307923E-4
0.0015513837165295015 -0.0035473829759481573 8.260872925019401E-4
0.001608304802647232 -0.0035602259727584135 0.001087723806884601
0.0021309067004737 -0.004199754775385786 8.966438821769498E-4
0.0017078688352016053 -0.0036802343049884044 8.578885304215645E-4
0.0016071029140646029 -0.0019884346181953845 2.209501680944612E-4
0.0016062204136631179 -0.00199446286483207 2.1064806235783522E-4
0.0016339405118578915 -0.0031427827978001326 0.00108885998502314
0.001647326676494798 -0.0031156537161934794 6.195815820873673E-4
0.0017158539693988618 -0.0036989759919587267 2.6756147543925636E-4
0.0017461293354978028 -0.003591399994818837 7.884225933864569E-4
0.001428411608463986 -0.002786282170986106 7.139363964923194E-4
0.0018611677738448146 -0.003890459951014664 7.837087116313972E-4
0.0020582824743323267 -0.004275192050115469 8.966734504919503E-4
0.0018362824304212514 -0.0037564421567654687 0.0012185687272381362
0.001509063433996118 -0.0033500240766205142 6.414058500486622E-4
0.0024079668459462715 -0.004964445226486671 7.736654634417874E-4
0.0016549342731417879 -0.0035783563823727775 5.423908205721317E-4
0.002532656940239092 -0.005199573647428576 7.084800351198773E-4
0.001967109296378781 -0.0037039964456543843 7.246312166967608E-5
0.0016990664020729272 -0.003689705605088374 7.105967396483398E-4
0.0025442096562420698 -0.0046470110113313295 2.1448869731441228E-4
0.0018247405732141127 -0.0037475162353454404 4.8327063380395756E-4
0.001981825670674918 -0.003858940253829019 6.248378539731122E-4
0.0016195626427678062 -0.001959633806389744 1.6767200856188748E-4
0.0016015449763509026 -0.0025871404039968893 7.558785180522628E-4
0.0016210188844278594 -0.002694102135768792 6.567818478386887E-4
0.0016139690659607562 -0.002765704200382604 9.226126921929511E-4
0.001624170942311225 -0.002815358588859356 4.692640848890472E-4
0.0018400989661641089 -0.003925584840673442 5.8106460101112E-4
0.0015878808518297088 -0.0030317225467430824 1.415402760889103E-4
0.0017640121950046306 -0.0033846001098841024 3.632911696682275E-5
0.002431628762812295 -0.005111946150288277 4.7777283567850925E-4
0.002581183044055804 -0.00530904417386326 5.502151340955868E-4
0.0025103695819176817 -0.0051970796536160305 6.877400847944963E-4
0.0023195236321887783 -0.004581239835950048 7.723755776860577E-4
0.0020988792980738765 -0.0038081651751188097 -3.765465720681524E-5
0.0020542307138240604 -0.0038450694498985425 2.3005127828328587E-4
0.00202528022054457 -0.0038637125308780738 4.404186517484647E-4
0.0016331119838511692 -0.001961021752344146 6.958021972596567E-5
0.00163470533642728 -0.0019746395937075977 1.3200468648290624E-5
0.0016224380446201228 -0.002670819043560084 5.259408821982417E-4
0.001604790939572998 -0.002268002501277759 7.715349424985972E-5
0.0015991725370784772 -0.003168050058612254 -8.817070897007815E-5
0.0016580246800259957 -0.002668036408535099 -2.287214799428392E-4
0.0019522757281316351 -0.0031345930296122187 -7.082033063555669E-4
0.002330115730799071 -0.0034874387567145376 -8.852453027866932E-4
0.0027634153499155626 -0.0056433208613545695 -5.2147442549459165E-6
0.002541989862806453 -0.00512605929181084 5.889459216949976E-4
0.002264940993898563 -0.0037816768900903923 -3.3942919025923613E-4
0.0025702882604437846 -0.003907814404744397 -5.506458157629386E-4
0.002252139315891566 -0.003876534505150258 -1.1170522523673757E-4
0.001655448740899372 -0.0019685935313492335 -1.491282318425009E-4
0.0016129733430977997 -0.002169440516446339 -1.3706637959916623E-5
0.001605921521727526 -0.002645607780180596 1.7436643169266912E-4
0.0025308780813459372 -0.005549688724498233 -1.542394526095306E-4
0.002746967083154154 -0.003622679425705438 -0.0013035839644296662
0.0027636197813512486 -0.005252902648830642 1.6096906278166235E-5
0.0023912697860032405 -0.004081123287250302 1.1688257463883455E-4
0.0016765378217921995 -0.0019850925957215484 -4.4522602277761964E-4
0.0018123830610635838 -0.00231218113194781 -8.761773165682655E-4
0.00202032020881576 -0.004523476994521337 1.4618486750375592E-4
0.0027567183465412345 -0.005881967290427744 -1.9553287324030054E-4
0.0027442087817510868 -0.003785064199368987 -0.0010052622692968002
0.002449968083978096 -0.00396814980873266 -1.5563960131193135E-4
0.0023860196581566317 -0.004000771383033025 4.5216911360008295E-5
0.002735727837621223 -0.0039932093980481415 -5.935136448223905E-4
0.0017076123782407008 -0.002022304853552374 -6.580075838473499E-4
0.001517624193039323 -0.00264079850821014 -0.001013599354726063
0.001848634817507484 -0.002843703780891129 -7.597893722743792E-4
0.0022713665656782967 -0.002920206394353602 -0.0016329637524079618
0.0023253455683672477 -0.003167076735300705 -0.0014281945990012308
0.002184505257741957 -0.0052819373833824365 -7.285788841236101E-4
0.0028553666175063657 -0.006085043386735251 -4.978754930408783E-4
0.003117210017004926 -0.004000625131622478 -0.0010879680996481976
0.0028762788757103514 -0.004607313482081008 -5.794906620988326E-4
0.0027289452163857053 -0.005959421257195793 -3.6380536710070956E-4
0.00262466932473974 -0.006017040302562642 -8.490220221674251E-4
0.003058092856801132 -0.0036878445691759945 -0.0015827664969900318
0.003040380354152388 -0.005782262364354569 -5.660651294813474E-4
0.002755737809090337 -0.004090595091773249 -4.8540220115041226E-4
0.0030955965247436833 -0.004065649038029999 -9.64120785553234E-4
0.003162226789682167 -0.00406075088526118 -0.001113754497074985
0.0015124895696083135 -0.0022361549565141376 -0.0015343610763209677
0.001394573024852678 -0.002168231345539586 -0.002013758008917095
0.0020731668467512325 -0.002542585614742292 -0.0015524117397927772
0.0030947142382652805 -0.003468967144966799 -0.0019355512729106665
0.0034237393928183563 -0.00365883440064569 -0.00198059869458615
0.0031410580508073583 -0.003618906019096682 -0.001800897365718596
0.003050771979546902 -0.006148451497316605 -7.576529973696893E-4
0.0031750929473687273 -0.00551441714832082 -0.0011794542543393516
0.0031776793850105812 -0.004078208664431538 -0.001048024931405303
0.003316952366870483 -0.0040900588775138556 -0.0011963885642770659
0.0017130606788210946 -0.0019851027571555395 -0.0011602974736532612
0.0018433433439617407 -0.002227785764719318 -0.0012405150137090857
0.0027059044267706187 -0.003255287125908182 -0.001852130486426403
0.002670123725619661 -0.006510799042773585 -0.0018728554318211245
0.002951989306494946 -0.006394200919642346 -0.0011407501341043958
0.003258563287117707 -0.004097548256342648 -0.0011123962037454533
0.003482665999691654 -0.004099899074673464 -0.0013695609638047484
0.0013303171531723718 -0.0020695028485728543 -0.0020830288472036863
0.001303941490333485 -0.0027701714095541533 -0.001873091777316344
0.0026967926348166692 -0.0030511725922730093 -0.0022078119903674266
0.0037876370436110605 -0.0035943142625057198 -0.0023392179349609097
0.003726829632836689 -0.0036857744751906444 -0.00217544374380629
0.003206097428239973 -0.006083029744524801 -0.0010965965794106885
0.0033821835225046485 -0.00408533648208384 -0.0012758373889667713
0.002987428596478741 -0.004303764221789853 -8.515551607070125E-4
0.0017788239157716674 -0.0019491674279732067 -0.0017297956976875604
0.001284461864565578 -0.002219518356557157 -0.002118972853220243
0.0014456535033053814 -0.004272177807813106 -0.0015408161087333062
0.0039672920490222046 -0.0034854034506421766 -0.0025865688708499633
0.004095093666434632 -0.003671380103470887 -0.002385226810804991
0.00302360556348332 -0.006614673733013272 -0.0016159783347913298
0.0031786271006860414 -0.006464250477083192 -0.0014914879012271937
0.0037329953993039612 -0.0037665686837240406 -0.002060589440931793
0.004068038458737169 -0.0038605829092063382 -0.0021498657193930624
0.003290945074789557 -0.0061979198349115085 -0.001628490098751525
0.0031925931475431835 -0.00416844208155269 -0.0012518780977435146
0.003559680823085617 -0.004094093896830482 -0.0014691068190238255
0.003500419363754682 -0.004078937876172394 -0.0014427818397093142
0.0015874157930820924 -0.002078906824961492 -0.0017329648016734915
0.0012650435630212195 -0.002072333600155556 -0.0022957430546737914
0.002184156764299011 -0.005788634465839893 -0.0015483474470441272
0.0041262410028920565 -0.0033564604587484536 -0.0028504090631760372
0.0036742903509026986 -0.0034704169985998027 -0.002428569934246765
0.0040264781521167 -0.003555519142864912 -0.002520957607591783
0.004364917431366536 -0.0037678347993577764 -0.0023897993633084755
0.004476012653578658 -0.003885215991318455 -0.0023223706338556063
0.0035133118187930905 -0.0038723182734086144 -0.0017155255981655447
0.0033339063918768996 -0.004988501868045801 -0.0016651453589769734
0.0032429135488208603 -0.004583889321715668 -0.0013874107246104527
0.0017291582502746163 -0.0019445525561552872 -0.001777705879169278
0.0017852126224771228 -0.0019513977377239348 -0.002046463340082141
0.0012664824454071634 -0.0020103307671685304 -0.002634542304364056
0.001062235263007433 -0.0024104143946745136 -0.0026217348695574487
0.0010630313343030745 -0.0032323277164529487 -0.002279431871827218
0.001038682446416726 -0.003701675938322216 -0.002221067106209509
0.0030740467087678755 -0.0028457103430849467 -0.003233511258386914
0.0044900050385383436 -0.0033209199643823403 -0.0030372807495865667
0.004882647485912268 -0.003602804018302884 -0.0027261989941201816
0.004236238769867512 -0.003933888408634366 -0.0021795745604895594
0.004220775500275309 -0.003990021042312613 -0.0021113416012624713
0.0035290744883616824 -0.004058053419204929 -0.0015856011113041433
0.0034189812144810087 -0.004046654047840926 -0.0015259963907884467
0.0017221898612089733 -0.001967266802925106 -0.002295596889450212
0.0018497325499196836 -0.002065205348121405 -0.0019828150323512356
8.762920410125496E-4 -0.0034422601863537197 -0.0025521433531292825
7.817690210680226E-4 -0.003935091904768629 -0.002716631220220971
8.998818520161983E-4 -0.004535399403434825 -0.002518591623882922
0.003375067317837186 -0.003104573271313643 -0.00289822712967718
0.0038520578122101046 -0.003261216861226878 -0.0028888583732223196
0.0011030576849107299 -0.005602295047903493 -0.0028707857766448177
0.0030611797073044214 -0.006712394847890865 -0.0020686877700770508
0.0032302948268885675 -0.006526215292257522 -0.002305104469922871
0.004650189692066655 -0.004015345983569243 -0.002285408844754454
0.0033519618338009663 -0.004376922600131443 -0.0016963023314709369
0.0033606498915704085 -0.0040989596957541 -0.0015493299083420673
0.0018013397286926443 -0.0020004707652327165 -0.002462124989469616
0.0011767943235768679 -0.002062306945695562 -0.0026273588523914467
0.002750808351962795 -0.002645770132890603 -0.003610389449600257
9.653473481305851E-4 -0.0048821532084276946 -0.0025518387146174736
0.004543602110180928 -0.003208902318901394 -0.0032870889478961007
0.004351646179022006 -0.003466154653186079 -0.002763650599848569
0.00280655973943352 -0.006804042524109653 -0.0026570731419826347
0.005006756484680439 -0.0039021609175701366 -0.002478670686972784
0.005295027585686152 -0.004084882503524831 -0.0024063303028591136
0.004904839636847148 -0.004055311789038142 -0.0023403921362271218
0.0033328786534890225 -0.00609184892408146 -0.0021283867481982997
0.004705142697743863 -0.004140348378104156 -0.0022293286084830314
0.003427941799290358 -0.005401490722074852 -0.0021663587057078196
0.00347609190390089 -0.004186815582259463 -0.0019484954861558228
0.0016269688391337346 -0.0020112445610563382 -0.0027895871883604805
0.005371553486617675 -0.003897724301071534 -0.0025509724873704486
0.00555933492188923 -0.00424687960245469 -0.0023646064684109003
0.0033874799473802785 -0.005779719511078111 -0.0023543977908305246
0.005210855830050713 -0.00434918023325636 -0.0023061608918567462
0.004037032396509973 -0.004086345136986628 -0.002011622577068364
0.003906287902510985 -0.003965968653987481 -0.0024181734400250832
0.0035984083981039 -0.004051598058105205 -0.0019411318331299888
0.0017593232704932707 -0.0020392531860286313 -0.0029766747093666265
0.0018797732150723965 -0.00211646326969531 -0.0029651390061834287
0.0010831898357354282 -0.0020967940871601883 -0.0031316678217977205
0.0021309500470156535 -0.0023510114857602394 -0.0025693169683494743
0.001542676420822824 -0.0063099261836979375 -0.0030506545701889827
0.0017863481494681845 -0.005905537300116825 -0.0023596482772698453
0.005680975799165079 -0.003884159319971102 -0.0025851849839105667
0.003079684621203773 -0.0067823153208021215 -0.0025410941662551115
0.005963624044734085 -0.0040694387951578604 -0.0024751168760307925
0.006496660978052962 -0.004272856426534704 -0.00237265471082252
0.005791611493963641 -0.004410111807114285 -0.002327499401201185
0.006034797779309655 -0.004720542330425266 -0.0022352872863628465
0.005524079670071971 -0.004682341756514047 -0.0023165054124670223
0.0047150531894668115 -0.004275218312723352 -0.002217791329558414
0.003990651612839668 -0.0028931616197770656 -0.0041996338166213594
0.004979257841009475 -0.0033263581465892327 -0.0031417117242972382
0.005288864565406979 -0.0034076424980630403 -0.0030302818606030408
0.002220946818345219 -0.006312932317075822 -0.002197952570759949
0.0054211669404061556 -0.003501096571391892 -0.002925865958431696
0.005505595298498317 -0.003679669648350549 -0.002750163680098698
0.006248808360479865 -0.003659042248080079 -0.0027685750573191023
0.006642872198594548 -0.003857873351977789 -0.00259064055320477
0.003491707903023423 -0.005113977685823976 -0.0024846308162715337
0.00573033655193628 -0.0048528967223751655 -0.0022637578388633502
0.0034635116640790568 -0.0047202108608856855 -0.002184060854472492
0.005607123552472014 -0.004916611058254058 -0.0023241863366541197
0.0018639242162411774 -0.0021799654496460893 -0.0036055139801303713
0.0020340800867700067 -0.002243840508989736 -0.003028855011594592
6.46453349224236E-4 -0.003029658661587075 -0.003176343869603002
0.004454891703911399 -0.0030326454378911214 -0.003819385861682826
4.5898852741261945E-4 -0.004973508074252678 -0.003428411853379995
6.985711168722574E-4 -0.005679038799734232 -0.0033627554811150534
8.288252713512669E-4 -0.006006257210091737 -0.0034711623769824143
0.005886019312281284 -0.003328109657355691 -0.0031800262882494858
0.005378226377919295 -0.0034440816789846106 -0.002985040705734349
0.006504608500078151 -0.004640055287993463 -0.0022048740108076793
0.0064513577180239905 -0.004815148864230952 -0.0021576976161655705
0.006288063741292268 -0.004801845804727312 -0.002162193943140355
0.005836824645550171 -0.004981623068099904 -0.0022549758923251562
0.004975910281360052 -0.004470873108683621 -0.0023497862222081243
0.005620453848168848 -0.005039486245108893 -0.002354392029230592
0.002363510422581636 -0.0024725246820957347 -0.003897427141497396
0.0011499901957810075 -0.0062501685634167095 -0.0033931858764539385
0.0069656219526858555 -0.0032933409973970617 -0.003029516498307427
0.006970285115360763 -0.003567316305000562 -0.0027717635176373674
0.002949570163437551 -0.006703880936577322 -0.003113627014908797
0.007042162567269015 -0.004386558822180274 -0.002303069090627391
0.00322867890483655 -0.00617991875432268 -0.0031396704050473826
0.006711504219698733 -0.00469436611659183 -0.0021893918722324162
0.006583602931303747 -0.004880894093568776 -0.0022190747999124563
0.006196473789409375 -0.004910928931305481 -0.0021821573225827666
0.004800944077936135 -0.004341793805061722 -0.0024424266827585087
0.003560367653430241 -0.004431215769037256 -0.0025589218443839608
0.003692310097603165 -0.004139883859876349 -0.0026676189405812154
0.0038346630552028712 -0.003976132574791706 -0.0026531006020282994
0.0057605581861425136 -0.005145230271675018 -0.002326568095831166
0.0016919337771039834 -0.0021172055625835553 -0.003633817424209631
0.0020253304651120007 -0.002272140528722787 -0.003587855932017239
0.0013792135262382472 -0.0020570270424400024 -0.003293932570485
0.0032060614371595725 -0.002835892843047119 -0.005215373816954386
2.2879587943445607E-4 -0.0029148277278472565 -0.003981922295030348
0.004347377900005427 -0.0028417353521766396 -0.0048073554624221415
1.2164182778707474E-4 -0.0052912620446724165 -0.0039109837319693825
4.937153551229418E-4 -0.005848949849152671 -0.003742665724289512
0.0053936003927134634 -0.003092975667486594 -0.003768654998220275
0.0015041357440261438 -0.006630929234922979 -0.003564612303133786
0.006956544505111595 -0.004626810205166611 -0.002226169877408182
0.003669837372253949 -0.004380954223864985 -0.003485355155267636
0.006065722806004948 -0.005080183209663325 -0.002243548437712145
0.005913188589122216 -0.005217390755475956 -0.0023210782346942647
0.005591216466904179 -0.005122296412042282 -0.0024263113230408384
0.0018520067459473922 -0.0022342446237224784 -0.0040119036981484954
0.003877988423746115 -0.00284312548540769 -0.004550396992622228
0.004219184217517386 -0.0028354846530371748 -0.004850280189442878
7.835440836795813E-4 -0.006224291475896632 -0.00403222810618186
0.007345046590589766 -0.0031014573812417146 -0.0031681842782321362
0.00739965695881535 -0.0033803663430392967 -0.0028682871860429447
0.007429853673227051 -0.0037381416835875723 -0.0026287410485623607
0.002619159130140844 -0.006823746479597172 -0.003214631582796037
0.0071514087749079075 -0.004509849497118539 -0.0022583711577492394
0.0034204024856803756 -0.00554395276683887 -0.0030659041566921965
0.006233124391887411 -0.0051596062945206515 -0.0023000389527836184
0.004058704949418339 -0.003934873905609902 -0.0025326207375275193
0.005707776108066899 -0.005255570268250768 -0.0024460719997138444
0.005573960468460032 -0.005148743053929264 -0.0025359816689762543
0.0020858523976950557 -0.0023786527035943622 -0.004235360283360675
0.002474567731700494 -0.0025828472011617584 -0.00467845160451546
6.424332440644022E-4 -0.0023843569511362924 -0.003822814957561254