# vtk DataFile Version 3.0
vtk output
ASCII
DATASET POLYDATA
POINTS 1299 float
-10.236065666268848 24.61605981052235 -13.910883788583726
-10.203219726654305 25.848949960994265 -13.895602041777227
-11.246224276923652 21.5573155514872 -13.491786561354582
-12.64950504190895 23.312603543231514 -13.270738139984099
-11.248725008784403 24.556793306377138 -13.684868319002334
-9.763948305020236 23.46979478140617 -13.928827151814634
-9.593883453608054 24.916226614300278 -14.000257409340216
-9.219900710541054 26.078154097793984 -13.678188408907747
-11.680817877862099 20.822387644399353 -13.273020842753287
-10.231428872352938 22.652763661144967 -13.596675578375654
-9.115252807212599 23.741852160482775 -13.704047102814453
-11.406718899777262 19.594027781353482 -12.855001658762042
-10.61968785362689 20.42223288671866 -13.104866251595455
-11.52479762494621 19.96883200695145 -13.104836137860879
-12.548360903825268 20.134361221297574 -12.507167406117077
-15.186616146235036 25.026452948211883 -12.916146192762447
-13.90088373964015 25.948377495348034 -13.303067290715656
-11.071722014061578 18.93954544059399 -12.043916667094084
-17.707685804490772 26.409205783628153 -12.191849246774188
-15.590615544781905 27.58010932120796 -13.00323572805958
-7.234278522443514 27.240481960801127 -13.101782035889588
-5.7144524606806755 29.314437182077505 -12.662507841265471
-12.103373612463258 28.302470939767215 -13.14464752634853
-9.032478863923656 28.773949926249944 -13.17150615865078
-15.875254753775392 33.379627822972985 -11.753878149434888
-10.984082551792863 32.30981356198345 -12.069507881098515
-12.974762361822602 34.57792379324327 -11.009944957281064
-11.534184877518237 16.17764200090881 -10.322415166044424
-11.342999516506453 16.72833151955676 -10.599486819506316
-11.72776808862068 17.177660185934037 -10.934930729231102
-10.149603917212081 17.78134123585424 -11.274643925647926
-11.666711018141346 17.615001328626477 -11.225643285822212
-5.3884480858092925 21.093535959451867 -11.310166998848029
-7.900684959170122 24.473690157036096 -13.295745144991294
-18.206045885862757 29.688171124531525 -12.406200881349738
-20.16925189714536 31.569165669073566 -11.820036024000558
-16.12811611166265 30.42040143350425 -12.673431670819184
-9.69101732210995 31.14752712139745 -12.507598423358344
-18.622526776553244 33.02588057341585 -11.845438063174106
-11.045175466711791 15.716023368999684 -10.256561838997005
-11.90825051924031 15.898570515605012 -10.282931913396236
-7.577273342084852 21.244810438175577 -12.213051260220473
-5.5664010620247115 19.903408126657943 -10.852809973112441
-3.8358983698806477 21.94191063088706 -10.337352953308287
-5.024111185698742 22.06113326567547 -11.428464859306608
-15.849034985933207 22.47393203995521 -11.723379248241015
-4.860935172495745 23.643618486254237 -11.648072222621238
-5.290082251504458 26.42525524108187 -12.323631839990956
-6.892202664188024 24.737205495645245 -12.899352486569496
-20.481814049418062 29.02418887472993 -11.44032950157184
-4.452936610785833 29.879616312080504 -12.468795710155177
-22.17187099909437 32.09321969576452 -10.857425136756959
-4.132227483281919 30.999258041391492 -12.459454287096968
-24.943295579465914 33.880072835346326 -9.033907424005644
-20.869922405168417 33.66666344762778 -11.279084984592927
-9.329303106330629 34.952595916402515 -10.651022081001884
-22.44183567255305 34.64680399328414 -10.389503571687147
-18.096467543652498 35.35768488291042 -11.030813543256356
-11.110900435583954 15.538610036443059 -10.157497761884414
-8.310296367620506 18.29165667596436 -11.243998531752638
-7.034765646639389 18.37657567865215 -10.879844142421392
-7.5611029491684185 19.07885755493346 -11.558163901159253
-5.81044924623336 18.479763906950527 -10.375574027770195
-4.045262155718543 23.243963427264873 -11.101203533991018
-20.412857083854757 25.058625352706102 -10.27943771545813
-23.58924382365113 29.283661459387098 -9.598372917778857
-3.5132018783677426 29.822597419408947 -11.741602449499327
-3.7921680060110177 31.387095614664247 -12.09196905769322
-3.871104848520425 30.62521716952633 -12.381248240487352
-7.287453039395786 31.185787157853603 -12.326272676174078
-26.037281395066607 35.48201491030996 -8.329801531893857
-23.393641148082644 36.499847991960365 -9.243950481202948
-20.554979003598195 36.40840288711236 -10.16678562815882
-10.980579528193154 15.424536364270436 -9.956371543339849
-11.945532566256183 15.60986376747894 -9.89067192267146
-6.283465599819876 17.967503639701725 -10.450349291763201
-13.733187525445423 17.528761572871502 -10.048151757899568
-4.365728144733587 19.53554594119232 -9.425985805344546
-18.34732983060124 20.963427064097576 -9.421667732942707
-24.539106999597344 25.573648491673183 -7.900080498854287
-28.43578850567621 30.005459965253284 -6.535735117045655
-3.139607743307245 33.26975072430205 -10.782009538902724
-4.804628716716507 31.65083081557293 -12.110776486076684
-27.415940505147976 34.99703791717543 -7.318142801021645
-28.296273135810143 37.843173349896986 -5.808946637280288
-25.725958636459136 37.1549209257867 -7.771307911113798
-11.22447781844138 15.286203739041484 -9.530756077807697
-9.52995199863354 16.118534988081763 -9.704272206392433
-6.2598962392759265 17.74173502314022 -9.835384819319799
-1.8551232067477337 30.858125376730968 -10.33558975208457
-31.978884714697834 31.515244914829164 -4.666938323427362
-5.773968923500895 34.76672226316172 -10.54001374744614
-17.223498976241657 38.030395064204605 -9.315166315993736
-11.033117101835034 15.082991194077103 -8.930621225899317
-16.31986177732027 17.091567269499556 -7.875600836264485
-2.946242534607569 25.87685804962261 -10.553023879287416
-1.7952758614841995 32.81176538095649 -10.401456404503392
-31.01371241871179 34.89819698383232 -4.725634696523155
-23.250623931539977 39.57817980999176 -7.444927624074769
-20.37762065227737 39.11363754053556 -8.61717610457367
-26.891359782746047 40.638514724944265 -5.183168229537557
-12.486818654778485 15.258387868772857 -8.507847655620415
-4.971293321771556 17.300081872969457 -7.603907763688633
-21.693587453021205 22.259428256341206 -8.058964581079174
-25.021912971651048 22.060890523982643 -5.622192823682954
-27.503989415536555 25.194180831002303 -5.8591859177249255
-0.7997250751500231 28.53981103058132 -8.878000862199812
-1.420155622757744 34.01113760744089 -9.719948639482052
-30.64635032136174 40.71263627623733 -2.6121611017388244
-12.495618693734173 39.80929324938069 -7.646906605268478
-1.241189063252067 32.66248495969412 -9.996342785812574
-0.3999743710166997 32.570120531251284 -8.780656569391937
-34.24826915602105 32.307677205194 -3.307625395248327
-4.081949004864631 36.71899233147202 -9.231856289480284
-20.597314145004866 41.58803412367937 -6.452098769532078
-28.415845915880425 43.113588240413044 -3.0189999750116328
-25.543934460115658 44.175176157973056 -2.7078757053641076
-5.5892024563244265 15.657979600554173 -6.480375498690258
-4.222240366088475 15.486929507390434 -5.42341172375538
-19.670611491978136 18.282831202366438 -6.005324750046313
-33.99606577139161 28.73699857968815 -3.100339241351137
-36.99346328098236 31.42741346446413 -1.9495415716003401
-35.1585598073851 30.82779116775189 -3.008124626531964
-2.1684562153651625 36.25173598671475 -9.022931300252385
-6.494712333963507 39.9355055653922 -6.798154961919972
-29.746131052571563 43.11570277323162 -2.390291990064771
-28.956742363277556 44.57257366758138 -1.5583928415645716
-10.79346458044498 14.51792196445502 -7.470792528569223
-15.39832789204352 16.066953762035773 -7.097105545358048
-30.358294112940566 25.880633199146242 -4.296222941143701
1.1745027186707104 35.16432943862929 -6.179373059282378
-0.5175054019568197 35.72196820412764 -8.143533166162095
-29.60291857696876 44.05862072204662 -1.9024262087469026
-30.82114097888763 44.62522311867574 -0.21906336479338004
-3.20473841709921 15.364587979384346 -5.379877955740302
-2.2573803826912866 17.61553295535819 -6.009303804641717
-28.70470729167143 22.88763508301106 -3.76002134380699
-39.53985326486961 30.176136082449364 -0.7963062186095793
-39.267883422944806 31.505258680712576 -0.9512583370483824
-3.3033328479416566 38.457539411236084 -7.897365685058362
-30.934157689166714 43.6653171545301 -0.8501293935647828
-16.964246302530114 42.48714686405112 -5.766251582484195
-11.360876822146464 13.827054071361749 -6.380388571599061
-2.7371977992892482 15.829040917346184 -5.367048641412213
-0.3234166623583439 23.003741207940095 -6.974023056258141
-40.195380880657936 28.747175023775153 -0.16727737281696817
-41.14747077384407 31.363820290396323 0.37765004478369923
0.1027241613246536 37.082546797897514 -6.921646460326034
-1.2445860487329479 38.29053097568474 -7.069790306330019
-38.91299709701439 33.04015516634856 -0.7400433450539803
-40.61361844393144 34.501162317988836 0.7040303804358715
-3.045476867176901 40.0472206753291 -6.254071463068887
-20.619298939210577 44.70325295196184 -3.2672021866264025
-30.819355132672783 44.9629980218883 0.323603231789675
-29.50419962017225 45.02619697736045 -0.1389613787630836
-7.736200558468293 14.752599354870034 -6.0537893842470725
-2.8818705035835386 15.326467079998366 -4.925761781494786
0.8828387622106848 30.349906649891825 -7.008559391200386
-40.05619922897014 27.083500758286803 0.5782000518526721
-38.10934050233138 28.540473573628475 -1.0842919766741959
-40.81587358511387 29.68101428005862 0.01290011565033828
-42.473533827914665 32.79873618190507 1.5076438537294214
-42.899747136995664 34.62378897862957 2.2448712937360136
-35.98024722689348 36.227305226875046 -0.9955052661395343
-10.708225847946082 43.4425223603563 -4.0207533609742985
-14.09319754939347 43.72640177531242 -4.309861001155074
-10.254309367247208 13.850378010452783 -6.2456246539288305
-11.26838697835379 13.57430138260788 -5.7187686299632485
-3.5170712603626 14.89484131240566 -3.967438529768719
-1.4975254291745417 16.26289443992938 -4.395561547152441
-0.2564480855601913 18.85090505899972 -5.498581217113235
0.5157129898644552 20.24749789559909 -5.784641021173871
[...]
POINT_DATA 1299
FIELD PCA 16
mode_1 3 1299 float
0.003750166817562903 -0.005308763803395939 -8.203726145154339E-4
0.003742366694473846 -0.005406127238784464 -9.496065872975704E-4
0.0037758455459120373 -0.004910288711713663 -5.599508359728654E-4
0.0037731778676978137 -0.004876703664126193 -8.405702119243674E-4
0.0037535255165860914 -0.005146654639686413 -8.642487701955336E-4
0.003753936825645039 -0.00530175742863782 -6.83139472026946E-4
0.003746878011698941 -0.00544234335114103 -8.302055153622881E-4
0.0037268911226843605 -0.005592014205799652 -9.529193283898423E-4
0.0037875638620264206 -0.004774707611857216 -5.193402630318028E-4
0.003750917275184225 -0.005158216202551033 -6.33581241917837E-4
0.0037340320964801676 -0.005426803613190073 -7.047105778758521E-4
0.0037886967897469855 -0.004678783314881653 -4.1247613404845555E-4
0.0037651899277402366 -0.004884001391387986 -4.404612629833007E-4
0.0037922874356512183 -0.004709070936052412 -4.3180891041457836E-4
0.0038001268786743234 -0.004583568617436978 -5.858557078999374E-4
0.0037675456778078296 -0.004750351045315464 -0.001175170898014016
0.0037484480926551858 -0.0049297588813464 -0.0011555811918050863
0.0037661082270781837 -0.004628376388478063 -4.2704265475711944E-4
0.003763895353894691 -0.004641932843026238 -0.0014818997767399103
0.0037307454001791474 -0.004871123996479627 -0.0014007729198444803
0.00368249594691434 -0.006047171051205591 -0.0010440208222344174
0.003647942184314574 -0.006530275291255572 -0.001243406113271416
0.0037175293832064586 -0.005254583610065989 -0.0012819950787863492
0.003699523499607062 -0.0057835378132284725 -0.0012419673778002141
0.0036666635914152745 -0.004975929847625169 -0.001873281283774427
0.003671058649985218 -0.005516729550440081 -0.0016476789559989307
0.003658409041293122 -0.005261665709903032 -0.0018992348721339337
0.003707509732097674 -0.004058523086816408 -3.556166789735744E-4
0.0037180485183205478 -0.00420254520499919 -3.779312706705263E-4
0.0037664303543338087 -0.004261958949491524 -4.006744215174252E-4
0.0036990783567670583 -0.004543094871136878 -3.3475503938177654E-4
0.0037758648527132506 -0.004349211411279425 -4.113679962220843E-4
0.0034665753376763747 -0.00581689878714409 -4.820304264372984E-4
0.003702092550000237 -0.00569875019341386 -7.643169974939653E-4
0.0037025492216435953 -0.004760521272720314 -0.0017186001163053525
0.0036716538814653256 -0.004715148791104194 -0.001961175462381869
0.003692091111944054 -0.004928183674648878 -0.0016499687715395808
0.003677787885030927 -0.00572934445054747 -0.0015055903244744944
0.0036575453167515897 -0.004804388721238052 -0.001967350845818802
0.0036726372951481406 -0.00401058158737176 -2.6981782321301636E-4
0.0037314907723636475 -0.00395587573631141 -3.3826861894807706E-4
0.003633560484182103 -0.0054309242556027214 -4.890384255537488E-4
0.003420620210942729 -0.005577147852326037 -4.1215881911613503E-4
0.0032561326708573745 -0.006156499127897956 -6.874308559167397E-4
0.0034721405454396326 -0.006022027239366794 -5.649807027708765E-4
0.00381970615678329 -0.004487319110537133 -0.001106763244867927
0.0034970086789753775 -0.006229976615053011 -7.162286784772981E-4
0.0035884995794311964 -0.006403831024396645 -9.698056874131309E-4
0.0036673681459422768 -0.0059180108639803435 -7.857067163427774E-4
0.0037283350124583605 -0.004618655390712275 -0.0018520454980976773
0.003621797577849284 -0.006898647876037068 -0.0012923659393468806
0.0036666493994368795 -0.004657791812374208 -0.0021202921151800874
0.0036294444762942175 -0.0070671396231650535 -0.0013987737602999325
0.0036374388652052154 -0.004624082938188769 -0.0023732220645428345
0.0036411834870935514 -0.004722105006953428 -0.002124553866520259
0.003623018071823467 -0.0058321708563307175 -0.0018860479479775162
0.0036257675970771844 -0.004688851493914566 -0.002262141579720356
0.0036445681711472 -0.00482601039457756 -0.0021110532113398964
0.0036742617289828926 -0.0039618948426576985 -2.6966931714479176E-4
0.003612455175946193 -0.004867991221288899 -2.9370566067483164E-4
0.0035133248324037683 -0.005078604277630425 -2.84099643868337E-4
0.003604157054107856 -0.005119673794386884 -2.926487941849993E-4
0.0033890073703055864 -0.005288997143884028 -3.119601858619768E-4
0.0034001811699053888 -0.0063370015930971964 -7.103214233250561E-4
0.0038491256903670956 -0.004409594266419997 -0.0017184640755735247
0.003754904555674038 -0.004518042515090089 -0.0021352103129414794
0.003526670271357871 -0.007081541608381506 -0.0013223248799489416
0.0035944482909775815 -0.007149547688706681 -0.0014502246090481426
0.003612297562407049 -0.0071105677217066345 -0.0013642945121035742
0.0036545876686122757 -0.0062258708536740235 -0.001463518649552676
0.003593782737848449 -0.004643101976832078 -0.002470471468942276
0.0036097734890546684 -0.004662343616358691 -0.002391689356660342
0.0036282321008753696 -0.004722597332294995 -0.002271005490980118
0.003657472560925638 -0.003945907586974352 -2.960529977484747E-4
0.0037204486131419 -0.0038814765379013008 -3.955274270807464E-4
0.0034323543337223365 -0.005128567986135917 -2.5032998869994557E-4
0.003829577277461385 -0.004089102094324827 -7.287983314042222E-4
0.0031439188187420233 -0.005624032779929937 -5.920646270078816E-4
0.003938108970896412 -0.004181912175218231 -0.0014363036444856574
0.003936833628060448 -0.004307162462707396 -0.0022094646788034097
0.0037682079343312317 -0.004434245083798207 -0.0025644234856688694
0.0034951905484031905 -0.007306137751262238 -0.0016843294475364682
0.0036168690849093057 -0.006876159835452684 -0.001482847400008201
0.0036039735182651586 -0.004596005647617793 -0.0025389568670756224
0.003573636293425156 -0.004572408514570873 -0.002631475005643374
0.003590961771545507 -0.004624453220383643 -0.00251057246030517
0.003656796620826886 -0.0038799672102194094 -3.9962062670721574E-4
0.0035321100890086192 -0.004239966545633176 -3.884104002344756E-4
0.003335247237743196 -0.005035132137001534 -3.6653167194607096E-4
0.0033494687288663826 -0.007490678784610127 -0.0015100124610732946
0.0036458595128941256 -0.004440400223276913 -0.0027757850071507876
0.003567759598054605 -0.006613117071666587 -0.001837367475956001
0.0036495042827836056 -0.004836429445387457 -0.0022792894110853644
0.003609071611513646 -0.0038307995640458037 -5.158253594215775E-4
0.0039736689765448325 -0.003849436486403809 -0.0012453927425375906
0.00328547364524365 -0.006782306784485054 -0.0010610875275761796
0.0034118391190617442 -0.0076659577872839274 -0.0016634873768755294
0.0035770048416918217 -0.0045023908412698205 -0.002713552252189009
0.00362776939328561 -0.004584167636307462 -0.002518787847128483
0.003637814562151408 -0.004660660871284989 -0.0024233441264321066
0.003605109464196002 -0.0045241525329310864 -0.0026562224764067146
0.003708813172134995 -0.003728399934643817 -7.17879560033801E-4
0.002897117030266552 -0.004899368597588074 -7.869323925524847E-4
0.004019130360940074 -0.004157781929319237 -0.0019099340358873838
0.004206918143297885 -0.004080581108548688 -0.0024008201605537883
0.0040519345044434454 -0.0042304738596680965 -0.0025663306030469504
0.003040025754156745 -0.007414217481384631 -0.0014826224215139336
0.003366329107221376 -0.007760903775616904 -0.0018153396736903867
0.003601209402549107 -0.0044643457233708465 -0.0027607067574871823
0.00362743711859853 -0.005220465209569675 -0.002368689030673486
0.0033506025758269606 -0.007781812103297555 -0.0016818853923175172
0.003183323944376 -0.007857806576554292 -0.001789345957119592
0.003558418149576059 -0.004417365360312383 -0.0028767772454520875
0.0034777069425667726 -0.007011244794896737 -0.002056178726871946
0.003676675727641151 -0.004539431128206932 -0.0025679849474168005
0.003618870520599101 -0.004457004929328773 -0.002757398358271066
0.0037255914035773147 -0.004329416993681516 -0.0027551829929216994
0.0028071881644980813 -0.004333097920650652 -8.945739738730665E-4
0.0024816608587832573 -0.004320644364343063 -0.001077973790159234
0.004153314142694091 -0.003869589030561657 -0.001848325098543701
0.003792706512446558 -0.004293166101435341 -0.0029643512404562405
0.0034897306208472607 -0.004336140257549414 -0.002998052789379826
0.0035759625429460694 -0.004376818696676746 -0.0029443801784904645
0.0033903554637475398 -0.007532821426147325 -0.002041372101021759
0.0034826012190777504 -0.006242956150193793 -0.0024112848185101105
0.003603302540752682 -0.004471769542185211 -0.0027769551039578027
0.003669894351221652 -0.004385236236518216 -0.0028015038812859603
0.0034955918848661284 -0.003655537010092313 -7.967815920712135E-4
0.003909687256840195 -0.003695521401189341 -0.0012617283268894109
0.004065744088768874 -0.004222045532228771 -0.0028307275462447178
0.00295750633127888 -0.00814743749060604 -0.0022351399033462794
0.0032414556027007247 -0.007916907251588223 -0.0020779139335764217
0.0036268054090808416 -0.004443886062695801 -0.002792558988460966
0.003692556766540769 -0.004370247254510341 -0.0028245702568552885
0.0022907115523897034 -0.004381963109244683 -0.001027728293691958
0.0023144311338681948 -0.005157100763579244 -0.0011199662770935929
0.004307728627402316 -0.004085103762321507 -0.002820876040479414
0.0034478953285562992 -0.004229038745506091 -0.003116039062606358
0.00337408493989353 -0.0042908525575452465 -0.00305092998479749
0.00339949793904082 -0.007145153388031635 -0.002275319036578225
0.003659243113091553 -0.004411666412387326 -0.002806006543340983
0.003695945058819114 -0.004629300585556437 -0.0025945904937972886
0.003501426310451817 -0.003402915912738974 -0.0010157535892820419
0.002224888502850315 -0.004563300774668332 -0.00108377497619204
0.0024597768623764544 -0.006703172376919461 -0.0013670913737101535
0.0035747039787240786 -0.004126346266787814 -0.0032053605302091773
0.0034108955292191756 -0.004183424116786587 -0.0030973933401489628
0.003159644078016975 -0.008011135417984315 -0.002280755959123117
0.0032674207341747198 -0.007646233106730561 -0.002336683634975649
0.003365491309358898 -0.004317607601324326 -0.003000178907619038
0.003337787300942804 -0.004267118408763012 -0.0029845881257767374
0.003329002634076927 -0.007062413996042648 -0.002494312880168833
0.003766357427898499 -0.004313683819969616 -0.0027486917264188896
0.003728151853989373 -0.004323399955932394 -0.002836422839952783
0.003746344983113057 -0.004292314230764099 -0.002827665432249022
0.003032361420368544 -0.003864685551127199 -0.0010119501987670566
0.0021743786310507293 -0.004355074125133716 -0.0011457644106055822
0.0028151790393650526 -0.007835456750471734 -0.0018294622148717606
0.0038450405080375635 -0.00402116461961394 -0.0032962586676643485
0.003675495493901547 -0.004185256720504085 -0.00315468552577436
0.0034727606811642484 -0.004148501878193487 -0.003170854160350799
0.0033918537964059735 -0.0041498752389691 -0.0030556132908122575
0.003382945517803936 -0.004160164634354057 -0.0029979683225823434
0.0034880373456706456 -0.00437098111875585 -0.0028884333431086007
0.003605089291571871 -0.005179866805724691 -0.0027010600213142524
0.0036886182761188572 -0.004741835124771105 -0.0026890525474106124
0.003355331383880681 -0.0034645567056388856 -9.981168018408707E-4
0.003454605183726056 -0.0033097828946938514 -0.001148532680202258
0.002185934359693866 -0.004068787115117064 -0.0013640205862642705
0.0018813875778977457 -0.004726240840122602 -0.0014117229728171743
0.0019385853344739206 -0.005743375804715507 -0.0013897022947776938
0.0019315666884526634 -0.006283702025724013 -0.0014460110204466534
0.004745030646712746 -0.0038787917541569096 -0.0030482692967880977
0.003941562647867068 -0.003912821589459135 -0.0033477511436465165
0.0036857987416209024 -0.003914327253087565 -0.0031552091581284894
0.00331974074739426 -0.004252451319475343 -0.002964035820642919
0.0034313953781736875 -0.004244464203901462 -0.0029323200406384023
0.0038108268077292774 -0.004201651897337217 -0.0028371782296155723
0.003816573530912224 -0.004179980854608891 -0.002825808304357024
0.003267176889771441 -0.0033416892292549233 -0.0012484268823581034
0.0036731944691681716 -0.0033849430480301407 -0.0012922189710412302
0.001707094146470792 -0.006025513595250053 -0.0015359665271160179
0.0016280252432030065 -0.006509534964072785 -0.0017185164235176743
0.0018164248341001842 -0.007119112772493754 -0.0017289187273999808
0.0044541565560190545 -0.004024921772260265 -0.003201413208158072
0.004140138990938808 -0.0040381472756522525 -0.003295775190161068
0.0019130656785203016 -0.008039470811644252 -0.0020945969458541092
0.0030889674778277827 -0.007952628002884255 -0.002482650404943298
0.0031548568011189075 -0.007389090648485021 -0.002683852244844694
0.0034209867059157993 -0.004147217952174699 -0.002945500022393776
0.003789930730408124 -0.004353155537091686 -0.0028033391462044437
0.003831170195752859 -0.004162226256473272 -0.002818079621976057
0.003453532858448313 -0.0032154398588490163 -0.0013828437930383478
0.0020190352340402145 -0.00426715770087284 -0.0013393237037686036
0.004598330716455244 -0.0036355172181552317 -0.002796183734756513
0.0018765116926562863 -0.0074361978369680585 -0.0018079472519748146
0.0042873942774229335 -0.0038675818580226158 -0.003431731634384579
0.003671794128381593 -0.004013559741815138 -0.0032419228817262328
0.002862047843884626 -0.00810882864615602 -0.002649377899102327
0.00354785366273911 -0.003991563366977538 -0.002998242246117559
0.003693847646506907 -0.003958098199476052 -0.002931374414817263
0.0034940365268469344 -0.004079731205453141 -0.0029350641606369593
0.003297220770260921 -0.0066772519923865604 -0.0027113487561004302
0.0035799091903232863 -0.004146409737431825 -0.0029139734295383314
0.0034970020123172617 -0.0055518851316953355 -0.002810828474252032
0.003909304326834441 -0.00408260993454312 -0.0028609697480974612
0.0030109223349214995 -0.0033544627152201573 -0.0015338659431906093
0.0037044070889986165 -0.0038628700646540165 -0.0029917496573151035
0.003870408708362665 -0.003934900683021844 -0.0028960363845571403
0.003367190293455048 -0.0060732540951332105 -0.002833103466358658
0.0037868356532805903 -0.00409306856633992 -0.0029132454817262384
0.003898562854821558 -0.004182744875606111 -0.002881444795069982
0.004173045256214762 -0.0038774456894693243 -0.0028745547306860166
0.003949701405548688 -0.004040265846456566 -0.0028586512010249725
0.003296688838503223 -0.0031554612492632563 -0.0016490232773460818
0.0035731307871771398 -0.003149561330292373 -0.0017329862257857444
0.0018825408923636702 -0.004065374077576184 -0.001696631388963314
0.0040645373207169365 -0.003489152538995829 -0.0019396937607622567
0.0021468830732719515 -0.00847351283946186 -0.0023866332042529223
0.002429784290524635 -0.008060113838764532 -0.0020629053407303197
0.003918820356052092 -0.0037486070938995628 -0.0029887526350135404
0.0030136846505638155 -0.007852120888367108 -0.0026955128209700525
0.004145608040627812 -0.0037252313273816798 -0.0029242506824972373
0.004652719839095386 -0.003639051247737823 -0.0028674106232229736
0.00408192929955826 -0.0039290376839259105 -0.0028823086171869475
0.004323990834910847 -0.003983470371933906 -0.002855724187193933
0.003999266891798266 -0.004160579605178558 -0.0029413477436154166
0.0037483210151793432 -0.004182030425711074 -0.002918947527294305
0.005211347014013202 -0.0038344500292134725 -0.0036834551172539322
0.004109213767563945 -0.003789445224150988 -0.0033425932181036975
0.004025528723131048 -0.0037164785300864926 -0.00326457640118051
0.0026841432735293493 -0.008228790305683695 -0.0021804607759965855
0.003970596686688376 -0.0037061276059017455 -0.0031962704438603844
0.003908649797363439 -0.003739073938703772 -0.003093390990702875
0.0044204365594444055 -0.0034769362827740745 -0.0030610869780267054
0.00470742622088266 -0.0034206791621659576 -0.0029586921559298825
0.0036079762873560293 -0.004985878552588989 -0.002933047874594019
0.004096415860051885 -0.004161140158000691 -0.002920744043063645
0.003736888650402509 -0.004575495448178778 -0.002879469970334331
0.004043859287069909 -0.0042565010177626865 -0.002988658432716902
0.003444946736909746 -0.0030671495160183716 -0.002083216113074895
0.0038430683931715156 -0.0032502875774667547 -0.0019323742588361111
0.0013609604971367587 -0.00546092029735193 -0.001819507371951609
0.004900261251663635 -0.003845406171793008 -0.0035995867504310967
0.0013021398954967986 -0.007545763459652177 -0.002199740363191254
0.001544218436305696 -0.00821432369175016 -0.0022702741255325653
0.0016217500384727852 -0.008446672654419148 -0.002407178049936861
0.004489557224446341 -0.003528072485576382 -0.003282585174179789
0.003995546099939653 -0.0036997042777469793 -0.0032334925729070427
0.0047455340107778405 -0.003783068666200493 -0.0027994777786453495
0.0047529589850086925 -0.0038835978046302304 -0.00280163035050858
0.004565074609731718 -0.003923574529702377 -0.0028001066182204155
0.0042126053011989255 -0.004192565689897431 -0.002946972244710721
0.003937504294165279 -0.004236747215384629 -0.002981461794524082
0.004084673498289757 -0.004326737121345922 -0.0030490783267415633
0.0041480950883059885 -0.0033198923929993844 -0.0025824481498121733
0.0018422750477934142 -0.00854577036461113 -0.0024712159291392904
0.005054311631272461 -0.003129774141520432 -0.0031742574828263832
0.004980795741024834 -0.003204501244221919 -0.003043716970884808
0.0028739697800554227 -0.007597706183232722 -0.002935453651705257
0.00526459261342233 -0.0035262518772021445 -0.00283404843413644
0.003123961750090887 -0.006494102677777741 -0.00306022586918333
0.005004108553414352 -0.003751861987060006 -0.0028030600097065537
0.004991040282528598 -0.003924184813023459 -0.0028894345274968715
0.004530384175136803 -0.004022394773295614 -0.0028556084203971814
0.004128029702169264 -0.004236285512281348 -0.0029921621765457997
0.003955089601429631 -0.004094526584762801 -0.0029433796223925887
0.004180346847823553 -0.003798551390380185 -0.0029153869981437294
0.004289392996359948 -0.003733075178799906 -0.0028817120506400722
0.00422148368515233 -0.004331976380448507 -0.0030639257091980743
0.0030704072249606268 -0.0031349535477905536 -0.002067269026473466
0.00373852884300711 -0.0031321494706224263 -0.002179400674138524
0.0024285406427014054 -0.003545444172525288 -0.0018652984900048469
0.004885151781107156 -0.0035921465283927727 -0.003562909800295954
7.964579808439288E-4 -0.005248632293185298 -0.002272847753858795
0.005583030475205314 -0.003790908281604218 -0.003969347190470798
9.86178603058576E-4 -0.007882996436073009 -0.0024551255216378556
0.001332078208599687 -0.008361062465637722 -0.0024773357676136877
0.004909649437643642 -0.0036790874740938264 -0.0035502295213456496
0.002011792757907428 -0.008657156025611496 -0.0027160237721566404
0.005279628503744499 -0.003663097350586595 -0.0028276809564010135
0.0043227834727389905 -0.0036541776688912967 -0.003030194092303869
0.004494383805585738 -0.004182005121836286 -0.002972231569652731
0.004422286615852982 -0.004335713751750524 -0.0030880493950730245
0.004116632811615795 -0.004410715908623263 -0.0031340201797396454
0.0033538456756356883 -0.003038196017744071 -0.0023434472024456586
0.0053983093493997075 -0.0038100559047454315 -0.0037305173595421153
0.005595237254660752 -0.0037941331503469704 -0.003951218760462978
0.001441765496851826 -0.008433506615353385 -0.002810134501946143
0.005376092660894136 -0.002963931674237316 -0.0032327817603041236
0.005345726257869614 -0.0030122820067487333 -0.003086752773789891
0.005465621709114113 -0.0031736337938867666 -0.0029617258125056323
0.002671948597250693 -0.00806608726640283 -0.0028694662486724713
0.005457050138427805 -0.003553773169648218 -0.0028305044653620607
0.0034263489643061645 -0.0054147604124516625 -0.0030811588924739217
0.0047789941534358 -0.0042283186961407215 -0.0030517400872569784
0.004275676694022993 -0.0038573611452148685 -0.0028685958311121806
0.004274444237003465 -0.004468960777491607 -0.0031931829814656485
0.004176869456834545 -0.00448839555194497 -0.003212134836800646
0.0036946212450419446 -0.003110356860686002 -0.0025971605410511716
0.004143695554850778 -0.003274360266537835 -0.0030257128858494926
0.0012250538233898832 -0.004363411261631322 -0.002198171061970027