# vtk DataFile Version 3.0
vtk output
ASCII
DATASET POLYDATA
POINTS 1299 float
-10.882625630776367 24.089156910406427 -13.054715898445497
-10.875123247516186 25.336340533140053 -13.044008547316395
-11.80494054969474 20.977921946321462 -12.596436612447464
-13.216298806982971 22.702927027840207 -12.339220935653211
-11.869885910711954 23.987823416604638 -12.798102362338371
-10.397167882105775 22.95764927203979 -13.085574603659607
-10.260709508298339 24.426095637867526 -13.164803826402164
-9.909088506272868 25.633260358532016 -12.865386029251306
-12.219213685490972 20.234345600012116 -12.360683435706235
-10.836483017249046 22.125768626381685 -12.740933994396059
-9.766485894911451 23.278157905480636 -12.889443349685358
-11.940382871746719 19.042016066556 -11.950964383013035
-11.177035459573139 19.88798669326054 -12.232519925817682
-12.053720754156041 19.39306137758257 -12.195561831751151
-13.079542456028648 19.57596450411981 -11.568356834564687
-15.729515403883415 24.33944739524458 -11.924512069749758
-14.487983635658619 25.28645061133061 -12.348073606604567
-11.63285442793649 18.470330891319836 -11.157269163320205
-18.22245399750966 25.66731713275692 -11.154353974042943
-16.173097576808942 26.86033458920027 -12.019819488315255
-7.95709330494022 26.940894121901717 -12.371326786005092
-6.468916683909445 29.141903160518964 -11.99792604685851
-12.777308115093303 27.72697294543042 -12.254035938434672
-9.763353307650354 28.374565297502553 -12.375016917181375
-16.577104443269544 32.65800236195286 -10.812233071568317
-11.745571816908587 31.818526069427236 -11.223816606708683
-13.743419839454743 33.99933277527328 -10.132903405670847
-12.14624417218331 15.82725849811756 -9.409564822585581
-11.943298477657462 16.361742181303566 -9.697741088650318
-12.30278413271187 16.772767791679964 -10.021202667570975
-10.752868284924748 17.3991702684032 -10.42434732409817
-12.233372766579691 17.189739353323443 -10.314832802015788
-6.0260025805823485 20.84158111154082 -10.666262604392623
-8.58043592328724 24.10348026023408 -12.535611227842494
-18.77373990097781 28.879608088242264 -11.386571079410416
-20.732120856217144 30.698663788924232 -10.785642804537897
-16.761461425642633 29.674222027339823 -11.702541444188524
-10.449537248068498 30.725179207000497 -11.695095481608014
-19.256869545502667 32.19353229618916 -10.851444762492141
-11.677623653175832 15.383437153901063 -9.35869294813377
-12.518995685939895 15.543370776668736 -9.353238748603758
-8.213280461818718 20.89925853830339 -11.47496373148703
-6.213597770955696 19.655710606852534 -10.200112950041474
-4.472845913531982 21.770283682108293 -9.732415600352416
-5.663953017074854 21.83172223459469 -10.799403794302336
-16.355197657770333 21.862358258009742 -10.705052108825992
-5.516503435309812 23.440815583927005 -11.022809432919475
-5.9937623229163215 26.24158587561415 -11.676611231875121
-7.580199785099391 24.440122425178668 -12.18436579306071
-20.985954849866552 28.204456930836773 -10.374304179513103
-5.210952738939073 29.803127290497216 -11.859619670981564
-22.704148381762128 31.207889716911712 -9.801762511078476
-4.907060924072698 30.962669871209 -11.865175943041308
-25.470656812344835 32.997435048556 -7.9697922983454665
-21.46496127584067 32.77326664829654 -10.259005778050772
-10.134975282883259 34.55789204397643 -9.865779647655206
-23.025588711665534 33.73896293912763 -9.363501652205017
-18.79446194681918 34.55679552415162 -10.066119042644942
-11.750077048792681 15.21779618537314 -9.254979491895844
-8.952306239824903 17.965955631599904 -10.476064999331083
-7.691724182187563 18.093955768774947 -10.170567187602087
-8.204732033414254 18.751296038001115 -10.827653488795578
-6.473351819721469 18.240378224105232 -9.71621897358194
-4.690850705500143 23.071673838813755 -10.506782691302208
-20.861714186190515 24.380769927356265 -9.17347953991565
-24.04968058229416 28.491436638239847 -8.48443861947889
-4.24575523264509 29.775711709732903 -11.169149799191485
-4.559847014768328 31.359260467699407 -11.511639621030195
-4.636162558387884 30.5987160029109 -11.798080757638854
-8.061393872465 30.91388830898774 -11.600356314505273
-26.577380503534524 34.57721397816867 -7.2816474874904396
-24.001606086099564 35.59526245595789 -8.2331844831112
-21.220485320982398 35.545697185045036 -9.182562279789613
-11.633669213279225 15.133378938369919 -9.056794410024137
-12.577081868649714 15.304623290260546 -8.954788228035286
-6.951076227987154 17.713933178363686 -9.776480150461863
-14.29490006873739 17.151208211229402 -9.065581173448985
-5.026752123271059 19.374794304119707 -8.78820128042861
-18.81570567538494 20.468684749826487 -8.32808151075579
-24.934423770672602 24.945147082843366 -6.713108408261715
-28.877126490874765 29.28702903330822 -5.356357105337081
-3.8942859790091595 33.23357125435354 -10.223670116728698
-5.5822197030642915 31.553009361825378 -11.486339266156516
-27.943813040329932 34.133100145546074 -6.244569170205655
-28.881461264335524 36.97472872988043 -4.773208431773981
-26.311131076876464 36.25436286287914 -6.749632942873529
-11.89225592635106 15.04447147310078 -8.6177682827528
-10.2084260768584 15.882974531253094 -8.863597488690953
-6.941295024290239 17.532882143906278 -9.144015383424419
-2.5472388491912086 30.85383792998607 -9.81972021631723
-32.45438233584487 30.811366078565865 -3.4691957616442592
-6.576544886504715 34.575705760679384 -9.874370413095386
-17.985889501756223 37.295872440922004 -8.385951109464376
-11.735140197155864 14.921277433793142 -8.018561929083166
-16.865867695977656 16.845429616796697 -6.805267847602159
-3.6054975990752807 25.7794214003682 -9.979883934466235
-2.5091353094314583 32.833877588399915 -9.900022319058705
-31.55157267586622 34.11452479335614 -3.6072707816782934
-23.933143228905884 38.70833256457858 -6.470698901384261
-21.105181149141345 38.287416708239014 -7.661200991004205
-27.5451683921426 39.764584888056056 -4.198002133562645
-13.163665182555974 15.105704693375325 -7.542402301033201
-5.725579316907559 17.270646727537002 -6.9046824196076555
-22.10880268501355 21.75718670690902 -6.8919819523564305
-25.39827209037261 21.653624425015497 -4.377138411025269
-27.866408671087164 24.646027828773743 -4.6044807558686225
-1.4331396221546389 28.512574201096385 -8.353584988599483
-2.1327587040057203 34.0206326728844 -9.221478423311158
-31.296636861935426 39.87472987062289 -1.5972278916228912
-13.34157828372369 39.26546098680781 -6.801255355773829
-1.9348468839439985 32.690319079732696 -9.509801320401865
-1.0609590109007958 32.56430026634142 -8.290365022822048
-34.764159932287896 31.628115485733918 -2.099721891278615
-4.88036025837643 36.59085110805018 -8.625277851887178
-21.370385515442766 40.79514056314143 -5.512130046598866
-29.10159633337015 42.25363069632536 -2.060128109708648
-26.296248823043367 43.34217008123981 -1.757939404068946
-6.438487484318787 15.742232844170335 -5.7491255940853705
-5.113611245292856 15.631074410994268 -4.7202656607282085
-20.169332953367032 18.066729868199456 -4.860861706671062
-34.449803898010416 28.167990664554296 -1.8194846369858695
-37.54201171051551 30.81965591208059 -0.6941129964819958
-35.65685372530249 30.197201950861164 -1.7577892589120307
-2.9224334169481843 36.19986264046006 -8.484402924749956
-7.34474511245337 39.623391172873426 -6.092613450609709
-30.422069050243827 42.2565447716612 -1.4272074291360919
-29.673062509867826 43.720764519558955 -0.6118985725250919
-11.573077513579285 14.53315132879824 -6.551044584462
-16.01532243721746 15.950272773000448 -6.044602126484218
-30.73143818987529 25.363288491738512 -3.005046826265093
0.5428152518653284 35.07587317609802 -5.6761617799418085
-1.2153282377295922 35.68837133211667 -7.645928179074649
-30.29581412378987 43.19887145169231 -0.9533655034662851
-31.53917328972274 43.774936591376566 0.7384029151891243
-4.112957265787498 15.507309815733109 -4.716055208325387
-3.0326184713734023 17.68371698634786 -5.354493064299906
-29.052987176211158 22.505723430483005 -2.4480895008727215
-40.11973844872289 29.64363213657939 0.5117411441903359
-39.86608310291166 30.93221055892922 0.3193825433215332
-4.099587486758783 38.31512884728002 -7.304471138116995
-31.631583252930387 42.813472197620364 0.11908793125073373
-17.808824802647703 41.79722917216954 -4.859597753207041
-12.196492806672913 13.988151639852521 -5.42448866116841
-3.6137094275435806 15.960091826369924 -4.704456160651841
-0.910313178488092 22.96333731414056 -6.369862995160559
-40.76273193928688 28.27438061581679 1.181652051330103
-41.781795730782875 30.837983028439393 1.6587581174929367
-0.5882502438390886 37.00783473064048 -6.420205484842113
-1.9904907598763086 38.18431113285027 -6.531239352151804
-39.53242312878468 32.43352937657575 0.4898812241588621
-41.28981226844739 33.90273964737581 1.9041244171130038
-3.850735710726922 39.84546193515268 -5.6449967658928095
-21.451943933131993 43.941550224842175 -2.33723452325538
-31.553531456509617 44.11867359316565 1.2828697796080655
-30.250308726641325 44.18670553035417 0.8186056932581318
-8.605264533943243 14.891736468400591 -5.231048458339575
-3.7935425992635037 15.490508011896376 -4.251132593281141
0.2933001764628487 30.298272371843936 -6.492501414329469
-40.587899408673884 26.682142795335007 1.9581782281109026
-38.62792597659183 28.04333734262057 0.2498505996999405
-41.41535469865535 29.18916297462624 1.3416045780207293
-43.1556316082967 32.26958227944933 2.7519515618667945
-43.611758134769616 34.06142835611911 3.443161509406992
-36.60864131259809 35.52130113718309 0.14754221522461486
-11.619500558341434 42.93690213843446 -3.202330806597724
-14.992256248423532 43.11963712965736 -3.4358828286552434
-11.120789093972293 14.032013250697116 -5.326715539483218
-12.140934423187522 13.816695698484411 -4.757689553900761
-4.4672331633282525 15.124309778187222 -3.2501354204291557
-2.3294189115849613 16.416140319878323 -3.7004908195690085
-0.9298235357694019 18.913658427759056 -4.8443974963765335
-0.07534337916827308 20.275088037461714 -5.145430833928055
[...]
POINT_DATA 1299
FIELD PCA 16
mode_1 3 1299 float
0.004324987612629513 -0.005954795173533126 3.330529135551423E-4
0.0042911160951927575 -0.006123097001266883 2.2087695653851428E-4
0.004304045968071076 -0.005281229280400919 4.1334353487657764E-4
0.004141379284733854 -0.005247429358774803 7.869527433942259E-5
0.004233444744824531 -0.005708648943458959 2.1398322894684675E-4
0.0043988555295100444 -0.005917136462010508 4.636500219358743E-4
0.004371757444989719 -0.006150706269068697 3.549292122230268E-4
0.0043560472105096575 -0.006382106253752551 1.7938392513437343E-4
0.00427694099451113 -0.005055708530381023 3.803561635396433E-4
0.0043696939949899255 -0.0056834837297664005 4.140271908585191E-4
0.004440028032216701 -0.006102982958761916 4.105550022478635E-4
0.004317402249046594 -0.004888161538273256 3.897357510303377E-4
0.004374674725109348 -0.0052234272943390775 4.522062083545139E-4
0.004305415418708118 -0.0049409849232977775 4.229481624665321E-4
0.004203613471377425 -0.004730487610644754 1.2213376705360988E-4
0.003900903594768925 -0.005049304108653576 -3.729211576350809E-4
0.003973180354614102 -0.005381590974970222 -2.1369938280418148E-4
0.004335223191399981 -0.004800856558515116 2.1386491249866617E-4
0.0037033804230831107 -0.004862901901610899 -8.366758023414352E-4
0.0038109853162149013 -0.0053177731358181575 -5.137959527663461E-4
0.004451133757999976 -0.00702111163723154 -3.1158195760212947E-5
0.00446965658914086 -0.0076948566459026395 -3.477881373406478E-4
0.004053295114711678 -0.005974023026024247 -2.3594555646025406E-4
0.004259932677432613 -0.006715325038900448 -1.835628912902553E-4
0.003660454077962278 -0.005779481370794884 -9.115326835094376E-4
0.003985922417066497 -0.006518865388992939 -6.736121828942691E-4
0.0038002026585614245 -0.006288364460043854 -9.76977242539604E-4
0.004229390928474948 -0.0039348935410542475 -1.27223178038004E-4
0.004266611534926617 -0.004152897393786684 -7.075007586124209E-5
0.004265549211404559 -0.004219121162969216 -3.0533763223470115E-5
0.004389673404156231 -0.00469548837607985 1.6518109535788408E-4
0.004280085372016437 -0.004352245204774807 2.731699425215445E-5
0.004748709586102224 -0.00669409563794198 1.68178623913979E-4
0.004506126700659333 -0.006494162233377267 2.817113873637415E-4
0.003587173694167723 -0.00518339298892959 -9.250893323466214E-4
0.0034290456478160516 -0.005149219676499699 -0.0012269948982498165
0.0037087299493502404 -0.0055316008042313545 -7.083016022719392E-4
0.004113856853524884 -0.006741039662917653 -5.125587136062115E-4
0.003490294774716427 -0.005429497113503334 -0.0010929919560790076
0.004250509201342404 -0.0038833151158136165 -5.6010029458649246E-5
0.00419616102742785 -0.0037627235979138447 -1.44937088315332E-4
0.004591112801702592 -0.006077618525730538 3.104810593471542E-4
0.004731793964688463 -0.006369857343192948 1.546785976938423E-4
0.004713393934974823 -0.007229395924288527 -2.8588071606892423E-4
0.004752547672296056 -0.0069783239280672895 9.548661554324084E-5
0.003914097234604234 -0.004546431373391716 -5.920037346194203E-4
0.004706291722143065 -0.007256831765707218 -3.899520636730871E-5
0.004589992563059007 -0.007486144852240122 -1.6697822366588448E-4
0.004563105337326848 -0.006795766085777641 1.710838362940429E-4
0.003487274160648145 -0.004847857166681196 -0.0012947692207214844
0.0045292274747386705 -0.008167484248407585 -4.8756840566632596E-4
0.0033343733635193035 -0.005007288215977995 -0.0015262971734285391
0.004507819164719427 -0.008396643024836954 -6.097249487694065E-4
0.003215876861755483 -0.0049425106502304595 -0.0019004015414963893
0.003351419274391863 -0.0052616020253542 -0.0013613030848312825
0.0039782832001128325 -0.007072322999185972 -0.0010981683253817108
0.003269975261235746 -0.005205468969134614 -0.0015760959220559602
0.0034798085505856127 -0.005629951566483029 -0.0011951362019633402
0.00423498271488985 -0.0038069864470629163 -8.536091326249676E-5
0.0045489641295311575 -0.005244285832757264 2.897307208384517E-4
0.004654235930211348 -0.005611757595312881 2.793153362624831E-4
0.0046374078155056175 -0.005636804197154002 3.970785911799913E-4
0.004726693917792021 -0.0059741867626809785 1.7830370166263982E-4
0.0047510225301420584 -0.007439071003737154 -1.4609686636514964E-4
0.0036129369821965756 -0.00434305842210928 -0.001474880538584
0.003381835932993829 -0.0045716579203666065 -0.0018475257116969072
0.004547429629992182 -0.00843732722354116 -7.146820785553433E-4
0.004493421680009934 -0.008528059834493135 -7.544580601814658E-4
0.004536022109434099 -0.008446804401443698 -6.06103700665037E-4
0.004275298865782224 -0.007382874740912876 -5.55604111270655E-4
0.0031407148139989457 -0.005020275097385339 -0.0019776285366741283
0.003210521038208787 -0.005256681686829944 -0.0017016791003885612
0.0033341040562821687 -0.005463120750567422 -0.0014395805973401756
0.004226168589641664 -0.0037913040425334543 -1.4914490955480336E-4
0.004159111432310408 -0.003652415929736832 -2.870562223056631E-4
0.004718341003283583 -0.005730371520994386 2.628897079318359E-4
0.004089757140692791 -0.003902075002600922 -5.562640950935489E-4
0.004639890345767925 -0.006516679330738916 -3.5393920366610275E-4
0.0038002982136706616 -0.0039356635458725545 -0.0013872725115690737
0.0034827958853710385 -0.004018738171162319 -0.0023223905013707623
0.0032801185251613986 -0.00426747751802104 -0.0025606207238040328
0.004384392430889267 -0.008838013823841442 -0.001281790693763667
0.004416994362340716 -0.00820187282667947 -7.229329425381901E-4
0.0031329633531228776 -0.004861970690752054 -0.002144251498817029
0.003054791179261312 -0.0050105048095973725 -0.0021015686933019283
0.0031256784205043607 -0.00514157707298368 -0.001917313160146103
0.004173847300076618 -0.0036875294544845517 -3.436384134634917E-4
0.004307811866109239 -0.004307322947353626 -2.04434948085951E-4
0.00461609327913313 -0.0056117127623977105 -1.4791739757699196E-5
0.004508417842280408 -0.009046296368088147 -0.00130205645704762
0.00317893087848033 -0.004200510446268255 -0.0027876050824100847
0.004176295194295199 -0.008044335916029642 -0.0012504233311133911
0.003488486514072679 -0.005849719943513522 -0.0014011791596533014
0.004128174538781989 -0.00363756754276158 -5.669343474801548E-4
0.0039140091751984525 -0.0034213285379512534 -0.001475662993468787
0.004626121871126831 -0.00808147447318958 -7.013592206013911E-4
0.004454566550065935 -0.009285529181787754 -0.0014596181721173906
0.0030846018491026885 -0.0045785146341285445 -0.0024450991231905733
0.003189941002823782 -0.0053992785674617525 -0.0017312640115093663
0.0033151620381826493 -0.005586334779738874 -0.001561044935852161
0.0030494516650207693 -0.005239642417636729 -0.001943974485819258
0.00402438341753088 -0.0034171360946609218 -8.684899416560157E-4
0.0043556611891847116 -0.005565220203371418 -8.929816877159052E-4
0.0036465950735181797 -0.003787912983542958 -0.0020887748918094595
0.0036204339456274385 -0.003510302790699545 -0.002894210303080583
0.0034659301933452533 -0.0037474513539036574 -0.0029485703318934222
0.004485636176230706 -0.009016150831499824 -0.0016196499555708916
0.004378793234650651 -0.009462635794101462 -0.001766811779353754
0.0029690915759473615 -0.005018865848085298 -0.0021121761134123298
0.003660394208450114 -0.006570337028030144 -0.0016905099757685066
0.004459884118110547 -0.00944734197332771 -0.0016027237956174826
0.004394823828058238 -0.009612510702935454 -0.0019950390820232056
0.0031213145634746992 -0.004128470938936369 -0.002866142503231459
0.004134662757247822 -0.008646993874299222 -0.0017880224410494981
0.003293689607506167 -0.005611344841338607 -0.0017220786458010027
0.002959181419876694 -0.005288377143670275 -0.001962066291621618
0.0030956575582467287 -0.0053515073700269025 -0.001915925894189197
0.004193801100518118 -0.004807048325009483 -0.00114430180911521
0.004119701897810916 -0.004948736753467363 -0.0014101701001769096
0.003803048138240614 -0.0033300894863663136 -0.0022820755519761572
0.0032910535157964316 -0.0037634368468271086 -0.0032351969060991424
0.003120388124581818 -0.003858551834320062 -0.0030576528821157313
0.0031643320910745014 -0.003924928119152617 -0.003066692696267988
0.004216099681919035 -0.009275163979650853 -0.002015030523486465
0.0038381715602134763 -0.007908678967738744 -0.002186024443330657
0.002912957615169612 -0.0052495953348269415 -0.0019903242652056377
0.002936893518684196 -0.005306063516391826 -0.0019344429230185667
0.003988956164352494 -0.0034273414089052386 -0.0011034372871150185
0.0038796506255328804 -0.0032338048848118695 -0.0016206037498167495
0.0034393372084502156 -0.0036561223486163675 -0.0032830074630049557
0.004143627553271658 -0.010136016293188936 -0.00299506041579305
0.00424085291094516 -0.009772126001786192 -0.0023729392655332704
0.0029019033543947474 -0.0053009643079339796 -0.0019525288229471996
0.0029025180612820755 -0.005226196469524482 -0.0019523564222612086
0.004206750582799396 -0.005172306626730571 -0.0013543367394771872
0.004248556782369088 -0.006180015358348942 -0.0014937972726483417
0.0035862366696837286 -0.0033917413211054176 -0.0034749532129949266
0.0031510541005155047 -0.0035596789285409812 -0.0032470469262606497
0.0030768249173745033 -0.003731114453890618 -0.003073654803316872
0.004032412740686765 -0.008920803469490002 -0.0022698351052095733
0.002907373426903511 -0.005188461385085467 -0.0019884194480602794
0.0034382224619693437 -0.0059187024368607165 -0.001828029699327922
0.003839628249915384 -0.003037751680403752 -0.0015689120728674796
0.0041910674376441975 -0.005434600536783639 -0.001440885758317899
0.004354913326818614 -0.008193303286678869 -0.0018558005838758436
0.003244366094198332 -0.0033505029432395433 -0.0034401062518688358
0.0030830071021651514 -0.0035984619169451724 -0.0030763763230604864
0.004129047694252561 -0.009974801304206844 -0.0028209116809495894
0.004056068346857367 -0.009555507943509598 -0.002675853654423321
0.0030168969854545576 -0.003906807362666247 -0.0028959639692405256
0.0029277200320898186 -0.00395792712211866 -0.002717625576753888
0.003894076416764339 -0.008934962104841853 -0.002696919109465831
0.0032896118142551976 -0.005570822032863891 -0.001956197330641649
0.0029198280345656157 -0.0052050670929123626 -0.0019464994526863454
0.002970578244626257 -0.005225304971206052 -0.001942606812601203
0.003976939521094123 -0.0039769330411495545 -0.0013733664799371506
0.004111244353564327 -0.0051622899862838875 -0.0015218455299945504
0.004325687974369562 -0.009661280368857187 -0.0024534733370717944
0.0033830238051398825 -0.0031845587346757387 -0.0036580026120724596
0.0032744773700477507 -0.003468860086335515 -0.0034409945666498457
0.0031772321508633777 -0.0034192615891653943 -0.0033108404140686537
0.0029993662598718175 -0.0036850757733692114 -0.0028687824133149208
0.0029116227320806157 -0.0038556205168511293 -0.002652526323126007
0.0029843404890657686 -0.004345807488128365 -0.0025598457524265887
0.0035955503246998567 -0.006813602197650391 -0.0023284162424668394
0.0035148791063969505 -0.006231318286230153 -0.0020916786116295483
0.003859759572180321 -0.003212032223650404 -0.0015254213781021
0.0037648970159379694 -0.0029213885631481323 -0.0018063179667334556
0.0038883850249305596 -0.004694652726460691 -0.0018030853883798117
0.003937251410819376 -0.005716520752305497 -0.0019229245648289058
0.004152059933687371 -0.007091671421144328 -0.0019725885175247947
0.0042107721492619776 -0.007815231391916692 -0.002114358923094476
0.0038261046569383387 -0.0030150316181202725 -0.00396991137319681
0.0034326709791357487 -0.003067244248938753 -0.0036676682619202526
0.003197031951557853 -0.003347776507212245 -0.0030372468676899867
0.002861192786759738 -0.00402363282849256 -0.002589463874546004
0.002862962038385608 -0.004218839269976125 -0.0024340491627249288
0.00304148864958653 -0.005206087979871609 -0.0019651880319736517
0.0030890310505961457 -0.005261052512121248 -0.00196757416696827
0.003734961750354469 -0.0030698097373996376 -0.0019128249923365146
0.003775564062390237 -0.0029110125043749838 -0.0019143383666885311
0.004075827416995728 -0.007530349309981994 -0.0022708152842753396
0.003987592555219459 -0.008148326026649971 -0.002635333023707444
0.004105342653557575 -0.008886511580759409 -0.0027290170792922527
0.0036371936749628 -0.0032019723978106915 -0.003950303214375773
0.003505252218667315 -0.003211904393611563 -0.003825871106489981
0.004025015433388861 -0.010056839740035827 -0.003477670094756282
0.00399165867920047 -0.00999277897520056 -0.003207593712772348
0.0038040136194435878 -0.009411382762786025 -0.00330126728837254
0.0028367697815077923 -0.004021322732222324 -0.002421121949406781
0.0034134194645236257 -0.00580473300360971 -0.0021568113254489315
0.0032125317848442723 -0.0053825879941672055 -0.0020089461164238976
0.0036660183885168884 -0.0027778848042469945 -0.0021542747732791637
0.003939444239483611 -0.005061081004860535 -0.0017859603453996107
0.003820683830584059 -0.0028284391437382386 -0.0036689087771401693
0.004111621447639397 -0.009278947602271445 -0.0029063794814334722
0.0036003283777784082 -0.0029884425354751525 -0.0038990884890476108
0.003276342497262487 -0.003251636985059844 -0.00341385689477908
0.0038646575715643337 -0.010238719902216753 -0.003725498603721878
0.0029716348356069447 -0.0037111981300764697 -0.0025585900475010004
0.002966970920725456 -0.003896395029188858 -0.002265125478022249
0.0028501670178666823 -0.003985010535205146 -0.002343149741419306
0.0037212308307653505 -0.008590567494338041 -0.003004099118147559
0.0028269380900592246 -0.004297952573954421 -0.0021871599302487545
0.0035918612615365836 -0.007341148515066235 -0.002736631123247198
0.0033229447714993084 -0.00544551049213687 -0.002146822132758087
0.0036165482115746556 -0.0032026422113670848 -0.002210212065058879
0.0030651211584376585 -0.003601001485383642 -0.002495713038813329
0.0030166702317061017 -0.004023071460496028 -0.0020627269775226127
0.0036061492587540224 -0.007953008192609282 -0.003012937327392426
0.002846648458612844 -0.004354020605389215 -0.0019735822415731384
0.002978029254049476 -0.004916440630951899 -0.001993499992409244
0.0032156735393292137 -0.00497114048874841 -0.0020236666000579646
0.003179016705556261 -0.005192959614839552 -0.0020407483315235102
0.0035545068929673566 -0.00276677692168111 -0.002484428084155754
0.0035748714134918183 -0.002614421174702775 -0.0026185659654790706
0.0035875667811939246 -0.004718704009814879 -0.002243097880669503
0.0037393496073829507 -0.0028526179863125303 -0.0026680418023979358
0.003947382651776621 -0.010618061372802128 -0.003924280459259388
0.004151530998221302 -0.010032127332666684 -0.003169456616948756
0.0032151772107222526 -0.003531299298702258 -0.0024420796741390833
0.0038342549424531733 -0.009959350928367047 -0.003597499136380049
0.0033201938957795594 -0.00370663123795142 -0.0021836072617414074
0.0036890123000141166 -0.0038346924219034633 -0.0019302162186321937
0.0031130279131898024 -0.004150869534079551 -0.00190328681143523
0.0032128044239590468 -0.004384336004790438 -0.0016712690099987737
0.002822999960093563 -0.004619024113262584 -0.0017190981462701896
0.0027976758395703537 -0.004614634799132177 -0.001979154033763461
0.003980787622467127 -0.0027617667837853935 -0.004885445278342265
0.0035003801711031473 -0.003029433039804145 -0.003519263124719705
0.0034350015414170653 -0.0030624655391861136 -0.0032400030124051125
0.00414901341667798 -0.010242365033013092 -0.003191898700300011
0.0033739001210345474 -0.0031429730699784383 -0.0030395686904122537
0.0032778274601354238 -0.003331309093209035 -0.0027585322808990832
0.0036322316363344882 -0.0032311360721336497 -0.002558599702254753
0.003829238937710198 -0.0033954346195110043 -0.002238430820836463
0.003506649517763211 -0.00674794383828299 -0.0027857774767448295
0.00287150779528815 -0.00465395150823723 -0.0016102453987119792
0.0034850076277151147 -0.006204149854250939 -0.0024763499018717124
0.0027202551620969804 -0.004827629614712903 -0.00158461823057252
0.0034394908128549846 -0.0025544003642625395 -0.0030308199441985866
0.0036248137269453626 -0.002623782802729156 -0.002808564215599588
0.0036808401264354575 -0.006808079261928178 -0.002643602074499622
0.0038737069741245334 -0.002880753867007494 -0.004406976827119352
0.0037240101915182794 -0.009506283460201527 -0.0036908007235951696
0.0038521016208988472 -0.010327832277273618 -0.0039239306794201035
0.0037980292318847563 -0.010613513563789619 -0.004167558032479645
0.0037151322482914706 -0.0029690410961590533 -0.003166914485028196
0.003407410908299245 -0.0030862889052995033 -0.003139759682413378
0.0036974335454522203 -0.004161458164265821 -0.0016850444959979124
0.0036449228912628045 -0.0043457601204602205 -0.0015959363431281783
0.003465492167483685 -0.004356961247705064 -0.0016011395882139768
0.0029179362757120997 -0.004753753346466178 -0.0015458242258359002
0.0027513846456483633 -0.00482694244868031 -0.0018073798050668739
0.002659332829231441 -0.004979038568428438 -0.0015310134029702307
0.0036222667693124417 -0.002592157661835699 -0.0034978377721305975
0.00381976673610336 -0.010726154507951524 -0.004207116375657325
0.004134127730135481 -0.002855380384093178 -0.0027189703678651383
0.004084565576354928 -0.0030887896472091827 -0.0024216978933829696
0.0036049030126844906 -0.009733674765653509 -0.004014079557403863
0.004242636813701172 -0.003874900120753943 -0.0018128857498124747
0.003457898208050824 -0.008513442077723499 -0.0037274916899237213
0.003928017017084479 -0.004194409839960528 -0.0016559073684761783
0.0037872454707957954 -0.004480823988884284 -0.0016097365184871947
0.003346278798940993 -0.004528013053600172 -0.00156441951787596
0.0028512768398339778 -0.004985014286773741 -0.0017828372029282669
0.0034505801981580945 -0.005648994319356533 -0.0024628843928597996
0.0034294019438282546 -0.005207473295935728 -0.0022777540460712188
0.0033725466500348703 -0.005001848358688377 -0.0021131696334478335
0.002763446740607448 -0.005022590847141075 -0.0014910451092840578
0.0033823066182275476 -0.0028219765985124843 -0.0028929410093461194
0.003510208111453216 -0.002505833005225325 -0.0031475610127950793
0.00343461844950323 -0.0036970537932609843 -0.0024455736973032485
0.0038345589334997346 -0.002716040335087303 -0.0043210128171557415
0.003166503686522301 -0.0065959381359106195 -0.0033134849925564786
0.004136884045766854 -0.0026097651760901485 -0.005374783880298989
0.00349878899844777 -0.009965319569864808 -0.004248309820504537
0.003655181231039257 -0.010532164395038594 -0.004337751925006385
0.003931503352850883 -0.002855089462316074 -0.003933914804012807
0.003691206014528023 -0.01088269029491015 -0.004521816468321004
0.004200608418963304 -0.004125019637038616 -0.001702828493688796
0.00361853715724461 -0.0052421607310888085 -0.0026946273367527977
0.0031519836596033035 -0.004813252324680643 -0.001515087412186554
0.0029303718801009897 -0.005074514439568925 -0.0014780103223826931
0.0025804301924312405 -0.005147524464371923 -0.0015084165403489638
0.003340247010245635 -0.002545213579545046 -0.00327601875295451
0.004069300398325691 -0.0027114514920418367 -0.0050280789180459085
0.004140453709602537 -0.0026139160631031212 -0.005383567497526461
0.0033905072313729573 -0.010614625954792447 -0.004791695970078459
0.0043657469917505265 -0.0026893115556057136 -0.002778195665779323
0.004380198126723537 -0.002910734321397461 -0.0024583287591426377
0.0044753355408602875 -0.0032715277230858783 -0.002159695702416269
0.003661567388474916 -0.01024716918885491 -0.004197700692449908
0.00440663968959342 -0.003991019074052125 -0.0017590245520635948
0.003432702912245276 -0.007304148731491333 -0.003317808949892959
0.0033473819057130766 -0.004949779477558096 -0.0015302941364729629
0.0032290113935890667 -0.0048904331947410675 -0.0019745872631165167
0.002652909014675446 -0.005281108932720595 -0.0014712522074255385
0.0025375716270043375 -0.005296942533529761 -0.0015096867883317708
0.003398341323994944 -0.0024856744426866046 -0.0035306348204641137
0.0035215092189798455 -0.002530368127760537 -0.0039020465041744597
0.003100897353604181 -0.005216239781983273 -0.002943975647529501