# vtk DataFile Version 3.0
vtk output
ASCII
DATASET POLYDATA
POINTS 1299 float
-11.114752497555187 24.681309567935237 -11.937390181470672
-11.095415192410407 25.913443049401817 -11.868965066066506
-12.108459858478362 21.67324001611516 -11.64092863709041
-13.55436030041333 23.458266563503578 -11.303460448447662
-12.141767966748972 24.63720654711751 -11.695186601790091
-10.620149738120151 23.538879689195216 -12.017911836730246
-10.465595311704574 24.983190210056225 -12.024465735649013
-10.086204181471965 26.162719343083452 -11.677344223627882
-12.551677249395825 20.972773056322293 -11.447392620052979
-11.08299297641133 22.74701729069313 -11.720958160091003
-9.956131562477383 23.82573985184389 -11.806320267855684
-12.279444641255791 19.799414483402348 -11.101760521359846
-11.466363475646164 20.574840509645725 -11.334475769761266
-12.391682547840098 20.141318720642662 -11.327639553721887
-13.461032715856835 20.406966266764854 -10.69614338016737
-16.13275530153938 25.209480440051085 -10.813344574255334
-14.83952907769672 26.06281806242715 -11.188004215082707
-11.970022422360236 19.252093795333824 -10.337237542439059
-18.678601730866042 26.648987946311166 -10.015466393820764
-16.557486737980582 27.694999309923233 -10.80081522776752
-8.038459237462654 27.364216833457178 -11.131584743529336
-6.472732430234827 29.473499469942404 -10.670056765022549
-13.042195890328399 28.36858377419353 -11.011882841405054
-9.915375884335825 28.870019453389894 -11.087039740425572
-16.901003660826145 33.3768072926579 -9.467394054780536
-11.945276317380905 32.35187122129201 -9.872964762308413
-13.97665956915171 34.5678065422088 -8.783234672734944
-12.57602819767812 16.76494792611693 -8.719606422303855
-12.347073364225109 17.261314609487126 -8.982017309781007
-12.711025418241107 17.676036979080212 -9.290463380403002
-11.071036877243596 18.171570074260202 -9.650974269426994
-12.628095405776085 18.068768493842388 -9.563802897455531
-5.987176474447357 21.194017343267586 -9.693975057339427
-8.707379748812846 24.58614889000008 -11.415983990247067
-19.20615370406204 29.79996861574439 -10.118639460168092
-21.188730455839334 31.664636443776978 -9.494945565206736
-17.12822691015097 30.47307208775926 -10.398186679005255
-10.614074728642525 31.221212386336997 -10.352231579765396
-19.65934814431172 33.04687819544938 -9.513725340997368
-12.09839693428098 16.304071388465463 -8.684841847918436
-12.978791532291867 16.520653368318477 -8.679674130279098
-8.332904246202743 21.40658241014802 -10.514695669996625
-6.195608535177635 20.042091476055496 -9.28148232428339
-4.309173946555669 22.008681802298398 -8.696301494236428
-5.599171595682971 22.150156208992453 -9.781330332858731
-16.814793630330097 22.855851716167734 -9.741343310863764
-5.447521995868633 23.74205636562776 -9.934776094451335
-5.967760237454118 26.563821092519042 -10.466370081039
-7.653491901449965 24.86933390821622 -11.05227634256834
-21.471393252406504 29.258771873139327 -9.189822680994075
-5.151525106541689 30.068514842379084 -10.496883857520947
-23.181755117642037 32.243674671011036 -8.577893842838716
-4.835752751112428 31.208281789558335 -10.454980144794765
-25.937146372760818 34.067225499834144 -6.87543364331992
-21.90852816648438 33.707359012398314 -8.95030652879612
-10.265443753204398 34.96785169750125 -8.494517744719344
-23.475092056406403 34.699327839148495 -8.112917296939457
-19.152210052465364 35.324119726074805 -8.711671445083383
-12.185021531919547 16.155667138024736 -8.589090879224084
-9.159420650783467 18.59645712624638 -9.663513546381902
-7.805132664120008 18.623995425038306 -9.34070338292496
-8.349399394029492 19.300473069995114 -9.973567824076566
-6.4882760167324145 18.672765605704303 -8.86560901247284
-4.555998952755677 23.31480143310107 -9.428514046913316
-21.39035334457583 25.572673427521167 -8.1768254507938
-24.558514589869684 29.686844455843087 -7.431186076533486
-4.1260091456349395 29.970626979797412 -9.825511464820174
-4.470068030449346 31.573513669971597 -10.102998954408998
-4.547984844894798 30.830308090561036 -10.40072179249321
-8.132786152910278 31.297402196258844 -10.242980127339155
-27.030569437676224 35.609664796619086 -6.233912901682585
-24.42793555179006 36.508420388982955 -7.048064413537248
-21.611089749515678 36.369473136782176 -7.888089147019144
-12.074348912085167 16.076222889054176 -8.393107868214363
-13.065566042424281 16.315932106815815 -8.292363609371728
-7.0099669890654885 18.191501073506103 -8.957330440283238
-14.79516083766735 18.211039049726203 -8.337883798603185
-4.916035362344906 19.694452616165798 -7.853208891884315
-19.379873711598137 21.713218409641534 -7.4940206567123475
-25.495177174712552 26.35856367456422 -5.844388169018743
-29.35597531525975 30.658182518354884 -4.548543310068199
-3.777824141148711 33.36234963352767 -8.820286093488791
-5.544152052560482 31.81507839961048 -10.086343405083566
-28.386938629270322 35.22100174819375 -5.306480092395475
-29.279476049736548 37.92338512413997 -3.942223274168507
-26.73450706596863 37.19292078707476 -5.715787745181816
-12.369446802273565 16.03240602229186 -7.960163612066347
-10.551697004517155 16.701592763728016 -8.15005704712928
-7.005459813101103 18.03066392546477 -8.322977351726742
-2.3285761068410826 30.91066910033877 -8.477293062043204
-32.86207595523583 32.213675883055366 -2.8391376222941056
-6.585448787731972 34.82574355065806 -8.477875440595993
-18.27940830849002 37.94263982349228 -7.074560919519961
-12.236063062129757 15.932040756937194 -7.364164724364878
-17.499034231886665 18.164505838500585 -6.145657488565685
-3.3999379751631613 25.9346350976453 -8.784095435863975
-2.3135016225826908 32.878365197393094 -8.506709871120684
-31.942715712267905 35.28261443059592 -2.942430178006034
-24.296146988455234 39.46837161555059 -5.367613086914629
-21.443057387182712 39.001265420222076 -6.415575491338685
-27.90514282523726 40.53221042640437 -3.348831013214226
-13.74418862078473 16.23478927857499 -6.899648083086134
-5.724949176931021 17.7283327484486 -6.046844220877016
-22.711862037333308 23.17221631970856 -6.075537249291535
-26.02545641684039 23.302748746979155 -3.699018444104801
-28.42889660327482 26.24870844882347 -3.8768916841299013
-1.0996075740434177 28.49148133822171 -7.080537289252231
-1.9376889799377535 34.020428443770754 -7.828958016223147
-31.63831944377404 40.68098112730858 -1.0465989475690693
-13.516028270405767 39.69514444780539 -5.500295469032424
-1.7065356798508227 32.69304672695074 -8.13104186690651
-0.7860038640543808 32.492096087907356 -6.950939247501483
-35.11623843806707 33.03864025941922 -1.6142949423563249
-4.834795185805492 36.71410231318748 -7.2274943391686195
-21.657692590535344 41.40528378024146 -4.380425087672929
-29.427584017097562 42.892431257932316 -1.4003544590189312
-26.576446378808022 43.89801190847438 -0.9986360943785533
-6.569472120348551 16.328656269234003 -4.966098720797165
-5.133395579068255 16.10417681639438 -3.8985521828127934
-20.853061601822354 19.590057244782756 -4.236982611280211
-34.84122597786377 29.813606931495126 -1.3488318190176247
-37.826393070668715 32.353105334408596 -0.375863319346331
-36.000294892509075 31.73226020975918 -1.3120772174590543
-2.8002938746327453 36.21508747574647 -7.089439392668341
-7.400027690038156 39.8025071142385 -4.789016589581802
-30.752654880177055 42.90354127105315 -0.8619681575066094
-29.978863288981774 44.272495626865634 -0.060600407519833886
-12.143854956905928 15.613680598846418 -5.912552527781125
-16.697686766875545 17.29221824714104 -5.42129819937762
-31.245116675873813 27.06481196476805 -2.4013763737293177
0.823772046750534 34.85695517248596 -4.383020514511916
-1.014892223606548 35.5920019216721 -6.286863084843434
-30.617066013051073 43.784635716976645 -0.41284420193666355
-31.849876662809326 44.33308964958113 1.1323294680702476
-3.9991767848123763 15.85797939757186 -3.8638171056149497
-2.759737684400249 17.899934456419416 -4.375610563929987
-29.644857574496157 24.321771281291205 -1.8869411096601125
-40.33190022799229 31.326119742620968 0.6810608522280781
-40.082259567597426 32.50173639883689 0.4952044495107338
-4.0504784923312265 38.35737479194525 -5.934350719092023
-31.953903322936043 43.43306200711718 0.5459775846146385
-18.025803552389856 42.293008593674266 -3.6765179507948123
-12.892359026752201 15.205095238603288 -4.820688638390246
-3.434449595264885 16.256388257895257 -3.808151709265801
-0.4176667077671654 22.937420501559377 -5.1792544554128215
-40.961953288893795 30.084456486482033 1.2943657740894579
-41.94816882664015 32.43866189099676 1.6601048982016118
-0.3981774143808591 36.84464094363216 -5.094792176794997
-1.8782243467536992 38.09857345992481 -5.195492470277376
-39.75435167548071 33.875080325489655 0.6450852960661158
-41.47103073058529 35.23730945279899 1.8638471235764649
-3.8294057028063415 39.841107302706604 -4.339225758435288
-21.67200765769034 44.42460258996791 -1.371010097214832
-31.85467874202115 44.65714395292574 1.6487869589656496
-30.5394857548285 44.71736511562138 1.2700684558800002
-8.995693326092617 15.740912148389315 -4.531017446775568
-3.6627870943642797 15.824463031334004 -3.378229719724267
0.697996876688905 30.1337549699129 -5.213955621999222
-40.8127465683749 28.616761108847527 2.020895338928749
-38.89859569613758 29.82231029574442 0.4878847407889435
-41.590107478627246 30.932944619165944 1.4112834413942879
-43.29219725983508 33.75370615901591 2.58671450340275
-43.751391047179844 35.38930027463896 3.1805215808054212
-36.891495520081484 36.68811431835014 0.40787482345313564
-11.74246659049585 43.22286541197029 -2.028693312725471
-15.152928008249152 43.50681563954193 -2.2739892865354108
-11.754046728685676 15.159188725989821 -4.703868134744299
-12.880924817821352 15.07118817050927 -4.165914691474194
-4.489887996186307 15.583199436988998 -2.416990444562597
-2.0293022195400727 16.613900013731527 -2.6914261276801104
-0.3771998411917723 18.915771479333053 -3.695293534893135
0.6032099551521917 20.179264075282777 -3.916163301545073
-28.55979128928637 20.934703749529913 0.7697229240024833
[...]
POINT_DATA 1299
FIELD PCA 16
mode_1 3 1299 float
0.002667153619298919 -0.004502631507107769 1.4498134570477682E-4
0.002700669707286499 -0.004784657762691589 5.950833105419563E-5
0.0025483341881171882 -0.0037525968251831323 2.0428001063571303E-4
0.002438130143187506 -0.004083032419601716 -2.4547590097392114E-5
0.002566232185344063 -0.004414039293985862 7.83725227102075E-5
0.002709529483494286 -0.0042917170148468065 2.189512536770133E-4
0.002751586990370837 -0.004634762599052274 1.3684756507981112E-4
0.002892048052099118 -0.004956494501330663 -4.253548408406594E-5
0.002515854785978653 -0.0035623467107896573 1.7571553253638842E-4
0.0026903366982288096 -0.004084413354072316 1.6905307338662637E-4
0.0028531644009739694 -0.004432759053718801 1.2363083403757501E-4
0.0026126813869754985 -0.0033208622892505393 1.2946688481166966E-4
0.0026872998981732105 -0.003559472703383073 1.6914560163192868E-4
0.0025537221573577722 -0.003382307037244087 1.8639085186627764E-4
0.0025305167961088768 -0.0034127893422591154 -7.414553678963918E-5
0.0022231898959597955 -0.0043752153966164125 -3.334189951151979E-4
0.002322128187485836 -0.004589711892486964 -1.934730534727153E-4
0.0027963542249522036 -0.003254078425363021 -1.0458207324897412E-4
0.0021004821536845793 -0.004636744534200053 -7.037827026112274E-4
0.002211932287384159 -0.004878040476094092 -3.9829225560646217E-4
0.003302491170242051 -0.005486017265979616 -3.521851443068576E-4
0.003636343537111417 -0.0061957077494707614 -7.02427427213167E-4
0.0026094024675919654 -0.005166972187652017 -2.503730371086591E-4
0.003038785754354098 -0.005580649341638372 -3.4534398469780584E-4
0.0024512931394344547 -0.005923565502562246 -6.852093269999023E-4
0.0029227553803603894 -0.00604519053516879 -6.346937684235731E-4
0.002831514648147684 -0.00629088109927982 -8.246673274057797E-4
0.002961256237446071 -0.0026116518032198253 -4.825969309457934E-4
0.0029505575130568474 -0.0027590187319214863 -4.316707872417218E-4
0.002875266325052709 -0.002845143666187386 -3.6799876473174366E-4
0.003027475580925194 -0.0030598188266920314 -2.4227100279584443E-4
0.002842503883815428 -0.0029442347906195685 -3.0176973931946705E-4
0.003623942457786567 -0.004280557556988895 -4.482858197797971E-4
0.003127486412417569 -0.004760608132227355 -7.752506825822688E-5
0.00207330657432073 -0.005237913528544234 -6.90625259538495E-4
0.0020167788408445592 -0.005580988823623338 -9.190863286008299E-4
0.002258710192523307 -0.0053989265148215535 -5.175771554794781E-4
0.0030395935180294567 -0.005975721284506985 -5.661796384777705E-4
0.002176207389807851 -0.005818314023918801 -7.890932464107215E-4
0.0030294502637609835 -0.002505139824035804 -4.38310075810646E-4
0.002933215026421909 -0.0025196388600794845 -4.830522024339124E-4
0.003270460335979325 -0.004077253461494923 -1.6762743501352547E-4
0.003621343879585008 -0.003953181472268078 -4.760319029617177E-4
0.0037923128010415924 -0.004647833230570308 -9.013966205561222E-4
0.003677268495486686 -0.00457270032908404 -5.147090034235215E-4
0.0023097733176898586 -0.003884744423253177 -6.231207537069183E-4
0.0037057835090098276 -0.00498577935701654 -6.04244598448854E-4
0.0036583128816035353 -0.00559738212493113 -6.267617457809788E-4
0.0033458982804867015 -0.004968475353421734 -2.5050860246220207E-4
0.002005235633373615 -0.0051441600500449465 -0.001057231826056905
0.003878692614243413 -0.006555171171308135 -9.050534547741551E-4
0.002010841667057034 -0.005707803148372007 -0.0012128359016804473
0.003964668053315086 -0.006875400756315918 -0.0010149387815510617
0.0021014054501973956 -0.006066447863360726 -0.0015939065769704712
0.002076345715572261 -0.00594256472869557 -0.0010131309747791939
0.003269270555851482 -0.006734109005212303 -0.0010550342095137094
0.002101612416648738 -0.006132355835234595 -0.0012221590505950342
0.002363332268593436 -0.006202219965127619 -8.769551214873486E-4
0.0030330843276733543 -0.002462050733748131 -4.633353502474238E-4
0.003277735441190502 -0.0033072651955341537 -2.2574668171184987E-4
0.00346840712306298 -0.0034325679200873788 -3.1705639774412363E-4
0.003357683556791538 -0.003549142686141566 -1.570323743070004E-4
0.0036355571052094572 -0.0035646839159170895 -4.801728769943654E-4
0.0038209427083091565 -0.0049797313515350175 -7.578507523881374E-4
0.002120839311367246 -0.004444407493369614 -0.0013630164486665658
0.002042835444513236 -0.005265379005620727 -0.0016234564301333225
0.004013767631963882 -0.006659072485764682 -0.0011460204636070137
0.004022310418163363 -0.006995900148716093 -0.00114365884147994
0.003998924678513296 -0.006835956285373451 -0.001035462453406284
0.0034186627862233445 -0.006320132941028944 -7.427797960239894E-4
0.0021439628659063285 -0.0063523293484893 -0.001661993848872378
0.002204834217938715 -0.006428408205354138 -0.0013448816859509979
0.0022867144263476104 -0.006367425854938268 -0.0010827187088084242
0.0030589491801266836 -0.002456053310508355 -5.307595343225695E-4
0.002953190414545931 -0.0024774764210587887 -6.167710426624816E-4
0.0035966826399846715 -0.0033902152332323425 -3.942866146258458E-4
0.002726143937804675 -0.0029213361117036373 -7.900174514867453E-4
0.0037184235480754 -0.0039620767620494315 -9.760257424597644E-4
0.0023544201095875156 -0.0036663083213686713 -0.001413998706545866
0.0021430777407694204 -0.00466757624586478 -0.002193597341734949
0.0021608296385574924 -0.005521013803005172 -0.002371039342456495
0.004128584269998949 -0.007422166950415255 -0.001558315516610241
0.003852841816985218 -0.006855280296500689 -0.0010413266293357272
0.002169715071388016 -0.0062925352619947585 -0.0018609069384236893
0.0022788288637244384 -0.00669120738241665 -0.0018016633960500291
0.0022299985349798256 -0.006568624021379552 -0.0015856199921731216
0.0030501136697314874 -0.0024510480862336478 -7.043056599303227E-4
0.0031919281634998405 -0.002727315555547891 -6.451335074310485E-4
0.0035701994214901674 -0.00334374060723863 -6.324531162640645E-4
0.004224137006652374 -0.007089551740134007 -0.001685291764416739
0.0022187788249313075 -0.005848608046513786 -0.002616436636434122
0.0037601885452547283 -0.007233815969920039 -0.001357309919392956
0.00264614344368866 -0.006644024690760317 -0.0010930062366853162
0.0030854023936774857 -0.002454358069697325 -9.218983835891055E-4
0.0026619684464843233 -0.002933049959472862 -0.0016249392680191476
0.003943524268626094 -0.005735917009439043 -0.0012198192482156763
0.004310847070378136 -0.00756311701693587 -0.0017859229726948855
0.0022422020216549747 -0.006307595831363089 -0.002212041033517672
0.0024145849636223815 -0.006824710436075606 -0.001372735210829886
0.0024999782853899165 -0.006748278043798069 -0.0012014032835632093
0.0024099496375080015 -0.007013474890070557 -0.0016110894729898665
0.002951181639041903 -0.002490650265154406 -0.0011497873658357714
0.003582449746003933 -0.0033128538786874663 -0.0014481303206967534
0.0022583653693959323 -0.0040083969830605635 -0.002039519788709962
0.0023361738044844287 -0.00412126152050581 -0.00282798099542338
0.0022234715070609035 -0.00471551577710614 -0.002830877346519133
0.004153518692885731 -0.006592928224629831 -0.002012576680634105
0.004337316867159993 -0.007831171128581931 -0.0020122452297180148
0.0024095413749981036 -0.007030240681244956 -0.0018119375944441417
0.0031612460534096117 -0.00719205476274398 -0.0014427184970621759
0.004352351573011189 -0.007600035844655995 -0.001925607926511652
0.004319801549619891 -0.007599772086624844 -0.0022509847621235714
0.0022625772802640377 -0.00600156339830738 -0.0026996657700740566
0.004030603747183412 -0.007850120927054111 -0.00184253613834201
0.0026768587053802207 -0.007056794903955128 -0.001372639001124117
0.002508506266076727 -0.007332696977771744 -0.001629425631772139
0.0026378591512962726 -0.007346226720670657 -0.0015885225312444922
0.0035119158637862123 -0.0028336189545528612 -0.0016792414940368513
0.0035228414253204417 -0.002788352399823956 -0.001978368822332737
0.002569299017012447 -0.003302187838571602 -0.002339347005823302
0.0023280438894996026 -0.005461348489265742 -0.003091214140605394
0.0023217764181710393 -0.005911559171911609 -0.0028994516869143053
0.0022750216325016217 -0.005813968852034306 -0.00293168712541982
0.004248213057268912 -0.008094896402365118 -0.0021139880335935305
0.0037193249521364196 -0.00792033717288741 -0.0020068884449455384
0.0024859459773262423 -0.007357293913764549 -0.0016633387322708356
0.002564413886262601 -0.007468180181330361 -0.0016022155339353763
0.0031247412742751116 -0.002409656077807556 -0.0014304137862523893
0.0027643999637358145 -0.0027498822912637136 -0.0017890720753891674
0.0023016398151611537 -0.0049231360789646975 -0.0031537172121141864
0.004245716226448466 -0.008186300431766274 -0.002995602293388788
0.00434651084057957 -0.008213968430564494 -0.0024661604659973824
0.002522604601505975 -0.00745666467223111 -0.0016192081434876682
0.0025403423895804123 -0.007458626048787134 -0.0016299481515311739
0.003632624979171904 -0.0027581013410721412 -0.0019831329516129233
0.003658942462402768 -0.003489785492882745 -0.00207711359070306
0.002389387087588724 -0.004399594132978749 -0.0033767539422926924
0.00240743521418065 -0.0057574646347744686 -0.0030756242356008903
0.002366096739338589 -0.005952081690843893 -0.002886848795740742
0.00410316513254976 -0.00824643051832758 -0.002214844826800732
0.0025007624270039957 -0.007370413593205801 -0.0016705042580179368
0.002954249557642019 -0.007249012173221101 -0.0014996072598365798
0.003110894126918096 -0.002307439168783057 -0.0018377917900911558
0.0036230025591261813 -0.0029118126297419064 -0.0020620978280690982
0.00383026290617945 -0.005158035660779161 -0.0023119051102778246
0.0025051597903107464 -0.005534833987212634 -0.003249336740535816
0.002491583877815808 -0.005902754291690044 -0.0027870086913766266
0.004330248014507499 -0.008501598483145599 -0.0027920369504796914
0.004248015191368141 -0.008517862628834147 -0.0026041022803813397
0.0023628965803231855 -0.006143543201865044 -0.0026667603420987736
0.002430503144719947 -0.0063099911758352145 -0.002364133133540692
0.0040419330376626934 -0.008474706268224769 -0.0025127177675249666
0.0028682777882805275 -0.007398328900463661 -0.0016237180301045832
0.0025623618123488782 -0.00745848585850066 -0.0016278143995790573
0.0025948509931031766 -0.007439768631798844 -0.0016251615790409586
0.0032916204653072206 -0.002548322615590863 -0.0017965174505696403
0.003563925919003174 -0.002738848091305699 -0.002136333210309147
0.004170716210543737 -0.0071245719476431 -0.0026810623346863916
0.002649243557707135 -0.005264103124322569 -0.003424428163917882
0.0024474979731799414 -0.00549199526380364 -0.0032842173710772526
0.002490675601517348 -0.005676395091124389 -0.0030959546658709315
0.0025587904276834434 -0.006067826492484937 -0.002446267897276128
0.00256422512474312 -0.006273474113070471 -0.0021438886185623355
0.0023574757709058612 -0.0064868588705816604 -0.002300874984950775
0.0034103885251158595 -0.007825597347486217 -0.002006868288390229
0.003196561468481388 -0.007550373792546352 -0.00176308135763617
0.003177277948413563 -0.002320052975608978 -0.0018348900340249977
0.003110115678432361 -0.002279832068186575 -0.002057843642146042
0.0033802529387901917 -0.002581471997977161 -0.0023573072033475913
0.0034284973624215107 -0.003041897856506618 -0.0024931184243159087
0.0036205235931863118 -0.0039466786421983435 -0.002526526026857916
0.003685846963006321 -0.0044366944048560885 -0.002639859054399739
0.0026852604767567817 -0.003798137958897806 -0.00390318979134031
0.002823235172022021 -0.005198907994225066 -0.0033299107688174747
0.0028949825009657367 -0.005683022556102838 -0.002444602263396931
0.002451259473747951 -0.006436807567853915 -0.002165149562792929
0.002476849382450895 -0.006601111117985287 -0.001995892105388709
0.0026480344377874236 -0.007439569606725638 -0.00166557589696398
0.0026851183180335147 -0.007462784868050923 -0.0016694896430247633
0.003149610961156419 -0.0022955026956663826 -0.002198254636984951
0.0029783273044104866 -0.002413961676723593 -0.0021210714268211
0.0035617029812556157 -0.0041150666301360455 -0.0027985770538191874
0.0035063625404092567 -0.004574524145052674 -0.003066800366649518
0.003639769077348869 -0.005210105269487923 -0.003106010325985853
0.002595704018950601 -0.004548076744559905 -0.003803538905073307
0.00265063808863056 -0.00500914334403119 -0.0036252661471637576
0.003722175430109106 -0.006400657370979949 -0.0036293300747170347
0.004236957051371673 -0.00868986894370588 -0.003052455170466745
0.00404355529092255 -0.008758985502878623 -0.003019959288635754
0.0025961851126122884 -0.006456850528014696 -0.001800802747154194
0.003074458656660706 -0.007579506902786236 -0.001823953426552278
0.002814551934914983 -0.0074789063112124365 -0.0017014199562329065
0.0030605733636380134 -0.00228276493654868 -0.0023724321552334032
0.003433812970149162 -0.0026824529701603133 -0.002371186140607571
0.0028141391803689526 -0.0031632360659263592 -0.0037086222396012763
0.0036831872384463582 -0.005585109940645216 -0.0032249240496990982
0.0029634084784800957 -0.0049375162484713185 -0.0035515634406351726
0.0026795324015410245 -0.00548668595332046 -0.0030947259274535445
0.0040833283905430074 -0.008686544805007279 -0.0034758882900969906
0.002824145175802504 -0.00612016625472042 -0.0018036345471541654
0.0029689370528318396 -0.006234088686887165 -0.001318875181382848
0.002708502210332064 -0.0064095984399424565 -0.0015946089841074793
0.0038587427359034394 -0.008533276085277935 -0.002693261884634714
0.002632952330244764 -0.006682232785770706 -0.0015307542182574365
0.0035560417827497685 -0.008181104692099993 -0.0023776347142756196
0.0029388761984472517 -0.007586098271160105 -0.0018542339819835646
0.0030997490711853525 -0.0023195344237946277 -0.0025225947593928827
0.0030612609856738044 -0.005968589674263022 -0.0015607078981849038
0.003128228948913904 -0.006237051876805579 -9.473114883544919E-4
0.0036681344102255506 -0.008415394095204762 -0.0026403960820839643
0.0028187745811848763 -0.006594305598939877 -0.0010614544871642476
0.0025733057045118422 -0.007263306486423924 -0.001707873389878307
0.0027065193037960882 -0.007510072480099971 -0.0018861579526623623
0.002751959295120485 -0.007510423817478592 -0.001789106652110433
0.0030348521915390943 -0.002278105105069877 -0.0027077804917984808
0.0029689190485442493 -0.002344040363592611 -0.0027874381658288937
0.003141754328081406 -0.002588558222019091 -0.002747120664806146
0.0027989782096495843 -0.0027680917975264536 -0.0027787948347641933
0.0038245700432023634 -0.0073910716104239995 -0.003880973313000808
0.003980847249770835 -0.007065182667695323 -0.0032828383042552466
0.003341189915225541 -0.00581203237239009 -0.0013531542563882492
0.00410918642280287 -0.008856306944960767 -0.00331236069560438
0.0035860824004829038 -0.005829759307951473 -8.973976827785993E-4
0.004169806349281831 -0.005618006613540916 -3.2177050746988586E-4
0.0033039744298072327 -0.006193769481288073 -6.420108603269189E-4
0.0034666557778133735 -0.006154681527721003 -2.0874764130551093E-4
0.002865488163597922 -0.00661761245711605 -6.363163212038673E-4
0.0026021088722206517 -0.006932570146471085 -0.001353552209369779
0.002946340506768917 -0.003956328454440642 -0.004713673175755974
0.0031150266178193997 -0.0051778244969749206 -0.0029843435621650285
0.003238581125438048 -0.0053128789629329175 -0.0025378796960853532
0.004125889014827573 -0.0077245369249387495 -0.0032302787773153163
0.0032771994178435555 -0.0054333115533991404 -0.002236254181577076
0.0032770551728098416 -0.005636489756544145 -0.0018371605511105695
0.003983278364770246 -0.005340194328517138 -0.0012654219131497616
0.004387752634950044 -0.005314580384148279 -6.793908774558509E-4
0.0033934029229514863 -0.008107129666026277 -0.0023933370128399628
0.002988523046195903 -0.00650147374019528 -3.419746658385759E-4
0.0032517073567865334 -0.007844077396302787 -0.002120165467755841
0.0027614823440677136 -0.006685228581903665 -4.470496340902591E-4
0.002922876221411083 -0.002339072682029864 -0.0032004547396608535
0.002895025780775584 -0.002503931951331891 -0.0029421083571183316
0.0032182913061416345 -0.0035893174328292146 -0.0031104136788254514
0.003093164387640979 -0.004445117278872758 -0.004113159297630422
0.0033409854999988066 -0.005485252251804012 -0.0038822333267410462
0.003532689621734997 -0.006286624148328161 -0.004027707981938386
0.0035399782314292595 -0.006701646725750189 -0.004176518032279741
0.0037867793269938496 -0.005073656671235026 -0.002224335463380652
0.0032703605509819033 -0.0053658709546627855 -0.002382127932592575
0.00413982913178762 -0.0057275476281847424 4.918741992157998E-5
0.0040389978236796825 -0.005822118298578823 1.4559598582411905E-4
0.0038063773699216963 -0.005948326352571948 5.542420656294163E-5
0.003055048609100081 -0.006458271415056754 -2.060579245838805E-4
0.0025716508273033747 -0.007024171578420814 -0.0011695263312294555
0.0026793247454051893 -0.0067430855074763095 -4.074457626293448E-4
0.0028559181606361804 -0.0027154220831910035 -0.00360195886350388
0.0036408883317961827 -0.007131828008402843 -0.0041489840166442716
0.004805310330434674 -0.004801026421530847 -0.0012220642281098111
0.004788962584736474 -0.004981762243249137 -8.0178669694954E-4
0.0038380310483553453 -0.00884575788020433 -0.0035962635822858534
0.00492017096822332 -0.005275265779950612 1.0180321175487445E-4
0.0036002462595188882 -0.008710490639532277 -0.0032488962815796175
0.004433022749443436 -0.005587402094066588 1.901765409122902E-4
0.0041984006709459235 -0.005791398789978566 1.3213537539046475E-4
0.0036318170564458934 -0.006081566584082942 2.608512475807835E-5
0.002533185726502658 -0.007267984485756135 -0.0014500729440804648
0.0030851744560621112 -0.007793465502977678 -0.0021606473272863373
0.002930412254920111 -0.0076877483084937135 -0.0020855849442784867
0.00281592403249551 -0.007605640721450526 -0.0020045812786012875
0.0028281073538803953 -0.006626078365455807 -2.535436382687499E-4
0.002925673613651922 -0.00230132612003416 -0.0031361554424327413
0.0028920079904466655 -0.002449817141880848 -0.0032789520469329605
0.00298616127510135 -0.002384504551402271 -0.0028419316713508163
0.0029940494063241422 -0.0031072978647815022 -0.004428805045696045
0.002773418203684878 -0.0033421119705143378 -0.003656363829467922
0.003107640926548661 -0.003807244684099043 -0.005181245825245655
0.0031379244178256663 -0.005654633515608917 -0.00432814637210164
0.0033585734095369895 -0.006382934481000392 -0.00434575752812693
0.0036021151742940023 -0.004673858950374524 -0.003352561159785316
0.0036461321775120266 -0.007770999926373483 -0.004298209986704556
0.004799440653813487 -0.005399472838422114 2.2900137745567143E-4
0.0030153123755666156 -0.007881609993150634 -0.0024938154164982147
0.003350341377932381 -0.00628890404057249 -4.577201524313797E-5
0.003032103575272878 -0.006508567289364559 -1.5693991336459786E-4
0.0025512314225265512 -0.006848491423273509 -4.7119536448443134E-4
0.002859837205644763 -0.0023496489622145526 -0.003454591140163099
0.0029781355895585056 -0.0036838541707554582 -0.0049094010228373395
0.0030721585886222505 -0.003726880226431974 -0.005218898244569025
0.0032286283627259564 -0.007010080865453833 -0.004587289979067432
0.005219009926860612 -0.004567979039647971 -0.0011878545657997
0.005297904991802507 -0.004707624893993646 -7.121682466844556E-4
0.005398595579611523 -0.00486961780242952 -3.1846859640985057E-4
0.0038559262671097145 -0.008697810613234915 -0.0038253337446197662
0.005096524912567571 -0.005226027365248746 2.4166080602392438E-4
0.0034112975648916684 -0.00841446328132415 -0.002854637226463518
0.0035607493168592964 -0.006222275562824677 -4.2867895873862014E-5
0.0026832631085856795 -0.007483329450191572 -0.001895573001370927
0.0026325856402648895 -0.006797498136768483 -3.8741728115557845E-4
0.002441583932084755 -0.00697724590040099 -6.150872914342577E-4
0.002825329857035575 -0.0024888587077042438 -0.003676366085068348
0.002832744798045685 -0.002717977108050494 -0.004030111744758609
0.00273551601902558 -0.002768937047545949 -0.0033581314319074303