# vtk DataFile Version 3.0
vtk output
ASCII
DATASET POLYDATA
POINTS 1299 float
-11.999208487304228 26.997898876006364 -9.94839257354153
-11.846735173294485 28.21840458139104 -9.753852050754668
-13.3641142772639 23.88162903462819 -9.901094742861162
-14.648322609764117 25.525204157881568 -9.307426320860642
-13.084184024343262 26.855996712456324 -9.65346627960455
-11.589493169545305 25.895542009175006 -10.17321732311157
-11.270972790922503 27.34694965667161 -10.036451916220697
-10.719719858979307 28.48258687137376 -9.585428475077773
-13.90362801023507 23.123554790935476 -9.755447248116578
-12.14503417348184 25.026528199281785 -9.928560647575036
-10.82106575559259 26.179191621202886 -9.965285649693552
-13.72444794968292 21.905807580851434 -9.547506920507391
-12.780228959639437 22.76669506459566 -9.743088156189996
-13.825980034327285 22.28135552570922 -9.731607378346565
-14.844192187579594 22.380089869827046 -9.0224523192955
-17.06685371400899 27.032671936153044 -8.51465889773909
-15.70333045273472 28.02824757620489 -8.851195293810086
-13.374091233886771 21.241784210519054 -8.852837931597831
-19.436256485531338 28.190162927143177 -7.522944009452253
-17.2738541591041 29.489077483102307 -8.236144230609424
-8.350393578928076 29.684166088413683 -9.003284947597846
-6.4167730696590075 31.769763656500214 -8.375408899083405
-13.64957987677215 30.433451771745712 -8.568773529019603
-10.274375074294841 31.09945062559632 -8.724898828427444
-17.209097680715118 35.02507044731875 -6.4705053774706895
-12.204477602782495 34.3353627332576 -7.134084336071869
-14.179657615368159 36.329693740454275 -5.846678269734436
-14.217885520980559 18.402211294853995 -7.392738210833456
-13.913952579655591 18.969808751899482 -7.636389711016212
-14.27068812982084 19.433669105306574 -7.914255892234713
-12.49305206302456 20.07126546040591 -8.29682961256426
-14.154365837545047 19.88387008687913 -8.16076404601951
-6.550653462015743 23.441396725893494 -8.259309392078382
-9.355950902310235 26.931040335162113 -9.555721228238525
-19.733917489359474 31.317587406441337 -7.28539994216092
-21.540992681472634 32.95812814105653 -6.482007556918076
-17.627336872848613 32.18768063933133 -7.5732094499595926
-10.85655338288084 33.320509359005754 -7.74868002338099
-19.965757191390846 34.481452954139954 -6.424455591211163
-13.79449472863347 17.940789378771825 -7.404648173591319
-14.6987364601491 18.122491612588643 -7.355390771230062
-9.20060801726489 23.6282517287077 -8.986345866193105
-6.8730436171322955 22.202626317608022 -7.936921369994166
-4.528440509929301 24.215574942206477 -7.120616738455754
-6.029862284963138 24.4310017128411 -8.262066900305733
-17.898322991588888 24.487761520315072 -7.710459803525282
-5.729484734707934 26.037060880179723 -8.248762761580872
-6.087333681645899 28.875396553752736 -8.47521398048236
-8.146960187698538 27.201574357128557 -9.202774715699098
-21.946373917611098 30.496934270442043 -6.444864044858831
-4.869464322666463 32.37570851736785 -8.171645047836154
-23.40722495172606 33.283703688358166 -5.607865935374248
-4.418773817512822 33.50504637381129 -8.021524186438146
-25.90502380087228 34.74099374467005 -4.016119132119887
-22.11607659991943 34.89592436354445 -5.803145189835587
-10.285234364030698 36.85524587277013 -5.648483553573781
-23.56070114934541 35.68032379451442 -4.985630801719993
-19.33546784868599 36.73935316847816 -5.521431408453448
-13.908372771585771 17.76506517286004 -7.311002697324399
-10.367733722128069 20.604659745033853 -8.36758522076664
-8.83181903798746 20.66746395246789 -8.098280487065727
-9.422147284267316 21.419048445666707 -8.672380931111045
-7.313259019476596 20.7317821179818 -7.644233449119438
-4.73810767484572 25.597417695003585 -7.790441736730484
-22.055981763049544 26.727158540995458 -5.880374691182038
-24.80230806225444 30.531377749279795 -4.851852132300211
-3.7483598587567104 32.23203092234966 -7.518921519381538
-4.006648747913812 33.83338626548665 -7.640616798432315
-4.12115079149056 33.133925800281474 -8.00842219197011
-8.15019939798883 33.47512617435239 -7.727999474670604
-26.8813367170371 36.13053559631699 -3.3638055534458293
-24.390494295637065 37.33573681555587 -3.933069364197685
-21.68817704212777 37.51441513394231 -4.666057025954498
-13.780905652379914 17.652494903706277 -7.1128001981496745
-14.78583473505743 17.83780711636397 -6.958553686400618
-7.958677337195809 20.22228718784369 -7.786545089028437
-16.262375652551427 19.7346836755618 -6.831986568316153
-5.353484745167434 21.712994579117918 -6.4231719147424124
-20.367401249663335 22.932725550639635 -5.603247112110552
-25.777210161322518 27.04392080802696 -3.7012900831644178
-29.138806786583356 30.953214811458583 -2.3715781155038527
-3.2262793993937513 35.46577220761398 -6.2111974878100344
-5.216432450298927 34.042227348856166 -7.58540168583746
-28.14876334925448 35.586104284445106 -2.655521651966281
-28.934104346717934 38.15575065277352 -1.3273388630367253
-26.55760492110883 37.72762040452359 -2.7930544357580978
-14.051169580148382 17.51625737299091 -6.64868571676306
-11.976649752992818 18.333401039735698 -6.852208943320463
-7.8989489005151565 19.948156263043348 -7.0770747185018115
-1.7319639166850391 33.061688803612235 -6.077917552235872
-32.28770045720909 32.12591925504999 -0.9624152976215335
-6.304941910440744 36.81437820794285 -5.727642052445039
-18.351307056663845 39.29090134207629 -3.8709278145376715
-13.85039964469067 17.307834074879626 -6.024751422953634
-18.780157141348713 19.302222444756246 -4.608678596383054
-3.211460864053613 28.16599843010367 -6.820856628726298
-1.6128669954570547 34.98880704050601 -5.941937435470136
-31.43438957472413 35.260487957115494 -0.802977847310794
-24.175180596500873 40.235073945773124 -2.256528774127819
-21.4193390980561 40.072888684092476 -3.1636971402937077
-27.603734309264784 40.87783068271256 -0.5559309627513225
-15.34557559731967 17.491619104675927 -5.490372314561386
-6.230589215704238 19.325058762003483 -4.5785309307585855
-23.35745940841794 24.069025589132405 -4.117120426708286
-26.30052391990103 23.882607619889676 -1.9583285096466798
-28.403598058449116 26.63732687192304 -1.9924548443096977
-0.5005480738195744 30.59388297700236 -4.815375328538277
-1.2128996580835902 36.045150001055205 -5.175598079592993
-31.144178380395715 40.640136537514465 1.2331139254228238
-13.529239245385662 41.16380569211693 -2.3812258615500963
-0.970656904424284 34.78537777879074 -5.5834901930280125
-0.05716599377819571 34.505242574079546 -4.4137271952980806
-34.32993224843534 32.71898780947311 0.011197235380438242
-4.371639206345526 38.57492049957125 -4.372061965515896
-21.576715004319748 42.34715429920995 -1.2013951661806033
-29.031558148518254 43.034008560780904 1.23118991632463
-26.320789179920297 44.29825087811093 1.7898027850613534
-7.183480899281124 17.610614213076282 -3.5326535717869523
-5.420789399999994 17.312905886950062 -2.4003168516442956
-21.719613216950044 20.45443767372364 -2.664801155194787
-34.071904530266735 29.602153294182234 0.10617603219608765
-36.7736190599511 31.802061546363092 0.8649925798897223
-35.11994653647287 31.33960595605745 0.13969691411127846
-2.1715925524139146 38.09694712162714 -4.277669748799753
-7.226132097721201 41.35527466230509 -1.806120115497394
-30.29603054771466 42.91034127286321 1.6199250929012037
-29.568279869970542 44.34595689442679 2.458207420472142
-13.629988627762037 16.71768261444196 -4.499533392817575
-18.040888767158936 18.3112722838523 -3.9125040051481337
-30.88506061809204 27.21600148228475 -0.7390451852178516
1.5170864160190236 36.63229147604351 -1.699746147013574
-0.3012603768810416 37.44950044946916 -3.5369289338470864
-30.17126716408242 43.79589861720374 2.0828396021503717
-31.375203798201916 44.2316075191725 3.3712775010612592
-4.073364596848846 17.10089130290926 -2.3895381857719555
-2.5955028552915373 19.460465799879422 -2.6872921660810496
-29.486840322433643 24.625432805020836 -0.3445657582083246
-39.01040971839447 30.600700860609436 1.5632269992320897
-38.817667209456474 31.761666690536988 1.473468228394595
-3.5715453941218773 40.065227543947636 -2.9947956782165126
-31.467163084359495 43.32787481315166 2.7910699705921354
-18.016552842843456 43.428126925734404 -0.47433813568542643
-14.404895050412584 16.04563765284006 -3.3424204516145553
-3.3880129574376148 17.575716134723816 -2.2560403559798403
0.15025312683410053 24.96591708574011 -3.1091634974772258
-39.55126135522505 29.382843253772002 2.0225336946029744
-40.53832007792585 31.63160430707842 2.4064630259543396
0.273841688950968 38.56849915079328 -2.286179590358154
-1.3080520966058709 39.76827983663946 -2.3110258516986995
-38.5621022597425 33.15923778844542 1.7146605044602223
-40.20935787434836 34.429366586168605 2.771464636354735
-3.463353837697945 41.37342902020479 -1.3768861447392184
-21.590567565790156 45.20912970383684 1.6855370023262457
-31.38904038494696 44.55827511342697 3.8383563438965376
-30.12950372991394 44.74150019477271 3.595289595268219
-9.978609893038767 16.79041617203159 -3.068568949132601
-3.6437562051490175 17.039615711149132 -1.830629077416548
1.4301455920081318 32.109595501055914 -2.7839151013647383
-39.40269724102356 28.05068045380547 2.66530154715176
-37.6943625814002 29.281216962946925 1.4472046246163834
-40.14370772497551 30.155997073060544 2.116431566194048
-41.850475499999455 32.89114309153634 3.236759702814771
-42.37400040738625 34.505774145613756 3.8275488910963666
-36.00955348104643 36.20575852928106 1.8796998926567552
-11.79988170156536 44.4698738862465 1.0464596465144345
-15.201373016815623 44.68296982893925 0.8785589819323011
-13.162270753138518 16.016962078807193 -3.2291351350623705
-14.352504923387583 15.781865000885375 -2.6508328087557333
-4.588399640795535 16.615710036367943 -0.8160770401532124
-1.6470571574096102 17.992951682969434 -0.855901421435676
0.3362189622047839 20.69553488321428 -1.688539080206198
1.5060038691573159 22.147727361998946 -1.7831441336962892
-28.478217526845064 21.333019956559546 1.9464904175158233
-40.848945757425064 27.839807937747782 3.622093234670097
[...]
POINT_DATA 1299
FIELD PCA 16
mode_1 3 1299 float
0.00229839678978014 -0.0024984697033659953 2.7658246561094286E-4
0.0022946118687722232 -0.002666620412563923 2.619723110853405E-4
0.0023586416413446665 -0.0020642764155027727 8.691522525892113E-5
0.002315821639590673 -0.0022556961876899055 -8.467953432158267E-5
0.002300148729502431 -0.0024380956013831043 1.4744185249694015E-4
0.0023087733326792054 -0.0023917447198403344 3.1428702724617977E-4
0.002301954055917192 -0.0025930139512418135 3.290659990201956E-4
0.0023227729228705737 -0.0028390038226428936 2.2584677899794984E-4
0.0023888964723534777 -0.0019497916333392315 -2.269460868615896E-5
0.0023249498301354033 -0.0022904793353825644 1.777658047264985E-4
0.0023132299084420156 -0.0025292382555140167 2.6463712982560217E-4
0.002439898522068061 -0.0018335547326195215 -1.685842473060947E-4
0.0023959330833248746 -0.0019961343990077553 -1.7531310388901832E-5
0.002421810401675511 -0.0018520397642373765 -7.536884278835367E-5
0.0024271255180441215 -0.0018924385307545705 -3.8345289120326977E-4
0.0022253125971778355 -0.0024456314844480617 -3.453314378685849E-4
0.002233474218120901 -0.002541052237172814 -1.3256840577102142E-4
0.0024689927731633425 -0.001858102311602775 -4.8019082762267473E-4
0.002152518339417261 -0.0026542238869695814 -6.864115342696252E-4
0.0021572740207041604 -0.002719770203450351 -2.9432799202569877E-4
0.0023806061547245634 -0.003329691876132439 9.79824362709875E-5
0.002446664929275505 -0.003908473704288301 -2.6965333038884692E-5
0.0022801243210956545 -0.0028893769072480383 -6.053392438273837E-5
0.0023744789159769785 -0.0032574562285835277 4.105205812779415E-5
0.002168832314827843 -0.0032712241488357385 -5.306745840364816E-4
0.002390752029494013 -0.0034605678823388017 -3.2970691864675245E-4
0.0023520052806435977 -0.0035519778590769116 -6.195149811485981E-4
0.0025858732276462944 -0.0014847190657809697 -0.0012869720731655575
0.002548691475180754 -0.0015899385740671902 -0.001133237990113543
0.0025628790329467158 -0.0016226113218346585 -0.0010010164317632063
0.002482980863994478 -0.001800648641954282 -7.462151628082301E-4
0.002544392092124425 -0.001677139375721208 -8.684321633087782E-4
0.0021411186805858295 -0.002950321818115964 -2.996840004335219E-4
0.002336543598789333 -0.00283347972808061 1.7277852627328022E-4
0.0020483296682105114 -0.0029510561656506578 -5.548189950068127E-4
0.001968853581466074 -0.003172225347108201 -7.555721680423186E-4
0.002114393895078484 -0.002993874725218092 -3.5567748143956144E-4
0.0024099930356392975 -0.0034765023597895022 -1.8281547043852976E-4
0.002024025455175273 -0.0032334705687701673 -6.318610409460067E-4
0.0026014534744698676 -0.0014128364961901664 -0.0013064679057382502
0.0026418075410099204 -0.0013944040735188613 -0.001348567466060175
0.002313570403444469 -0.00255157804089711 -1.5651855000523772E-4
0.0021159833210808803 -0.0027528976302254827 -4.878861359398198E-4
0.0019641120771266905 -0.003426624066641392 -6.120575947837194E-4
0.002149961879508023 -0.003159175970389409 -2.4691907663954677E-4
0.0023306990699750027 -0.002230332187483794 -8.392121520457283E-4
0.0022047003405145514 -0.003403778032507737 -2.0548154580885455E-4
0.0023400950007263577 -0.0036479832818084807 -7.504883913839088E-5
0.0023467400386628216 -0.0030697359341165316 7.863757769571711E-5
0.0020456799473425004 -0.0029989830103557525 -9.653053841943989E-4
0.002467570534764552 -0.004261722289538354 -7.025920960268813E-5
0.001962143718275871 -0.0033145732855946676 -0.0010758103235007249
0.002514644109029667 -0.0044760409794364605 -8.863670451586853E-5
0.0020090491502310283 -0.0035820308693667036 -0.00154693684766926
0.0019479339256818142 -0.0033550796109654605 -8.545495568027048E-4
0.00250909252040659 -0.004008811156282862 -6.509680719999002E-4
0.001945525434237211 -0.0034981518105850853 -0.0010990547531003893
0.0020945270031380294 -0.003411784343351994 -7.594824176982345E-4
0.002618967014030279 -0.0013763557516536108 -0.0013670064563952216
0.0023740443187591155 -0.0020539985248319024 -5.928487465679486E-4
0.0022514203222413066 -0.0022627073076619676 -6.025690862877319E-4
0.0023282767793464535 -0.002240407868739965 -3.7753696070018524E-4
0.0021088233687649753 -0.0025027365691147013 -6.838366138846809E-4
0.0021057621978187845 -0.003535554897511921 -3.3623286715682806E-4
0.00223561210855687 -0.0026958879130693763 -0.0014696760556678558
0.002107642323173527 -0.0032059320081249763 -0.0015998477892991963
0.0024192623715415303 -0.004497621152429545 -2.659665371121373E-4
0.0025198721121841117 -0.0046154450214211 -1.9402709441114938E-4
0.002492458705951351 -0.004494027467443237 -9.971786642060243E-5
0.0024748799615251526 -0.0038550755940418443 -1.736096881658138E-4
0.0020000473915093406 -0.003733327066456144 -0.0016540200010506574
0.0019892959137202304 -0.0036397005939664577 -0.0013121014456484604
0.0020333459644514087 -0.0035274296941759514 -0.0010119693811227876
0.002602823781780558 -0.001384799093318761 -0.0014552897714019215
0.002637466598430411 -0.001374239628462046 -0.0015426077910081436
0.0021632412834204544 -0.00233011192873723 -6.856456716968065E-4
0.0025593780686497592 -0.0016886818708450745 -0.0014718275535870499
0.001867403509824205 -0.0030030553371213054 -0.0010231131131228817
0.0024252077744724397 -0.0022437801859537835 -0.0018131055713277832
0.0023189773559152815 -0.003017407632707849 -0.0023387774408593826
0.002298646350647217 -0.0035383109665238187 -0.0025100760226036186
0.002569686840186956 -0.005027951815323568 -5.769646234937693E-4
0.002528941881783776 -0.004415408236167992 -2.0297964831584087E-4
0.002099321366784831 -0.0037583020604239304 -0.001941484657927346
0.0021868526328364802 -0.0038700079494149125 -0.0020633246875200193
0.0020436446657389694 -0.003767149422761123 -0.0016619107787743989
0.0025853692357722838 -0.001393232346354141 -0.001670036060429128
0.0023924110519380954 -0.0016892984208824987 -0.001418473408052209
0.002084941992256473 -0.0023597756350357503 -9.929476176192425E-4
0.0023635318485550117 -0.005068318927806091 -6.741357419160738E-4
0.002427592784670323 -0.003803320379657948 -0.0029016847286917427
0.0026065637496595984 -0.00460410252293076 -6.501709127131915E-4
0.0022451875894685704 -0.003655155593733091 -0.0010672637713285858
0.002516057489133216 -0.001433283580229742 -0.0019365607563104417
0.0025926949742793776 -0.0018004219578858028 -0.002429126031288081
0.0020890342941301786 -0.004155876592515968 -5.728365586251675E-4
0.002516450521922544 -0.005332812733185745 -6.759327488459919E-4
0.002352713519759637 -0.0038683469136493185 -0.0025479423835168755
0.0021300531345464003 -0.0037436017517481304 -0.001533898006828771
0.002150178996890522 -0.0036760690550774176 -0.0012651695362376934
0.0022247105574643984 -0.00387250975426559 -0.001983952739636445
0.0025579013962331748 -0.0014414018930650548 -0.0021833451849259536
0.0016338415451536544 -0.0026335731361462568 -0.0019489929879222447
0.002413440113494909 -0.00257955650902998 -0.0023639762188473797
0.0025541774141080316 -0.0028157598786482893 -0.003220717766890935
0.002464770522300582 -0.0031998371699137936 -0.0030511513044650506
0.002003892948550151 -0.005041670558562397 -0.0011078271479325584
0.002557816278877056 -0.005554780340573987 -8.774333542879234E-4
0.0024562844791829242 -0.003951407296772924 -0.0024302497777212613
0.002518927441729908 -0.004142909343716939 -0.0013400444388763227
0.0024704295701402667 -0.0054557930252772235 -7.843459900827615E-4
0.0023365044401584107 -0.005624246626958175 -0.001120250483578205
0.0025567438358942854 -0.003921645850795843 -0.00314558915226928
0.0027038529754219304 -0.005193916016999193 -0.0010058830425546388
0.0022922024821810318 -0.0038005519835655347 -0.0016170173707440263
0.0023663461967336715 -0.003936056368414059 -0.0022607709214642955
0.0024263423102236074 -0.0038886704532428516 -0.0022012932267467715
0.001521740393531815 -0.0022817018115502243 -0.0025297039790723344
0.0011236173630168943 -0.0024645702741588507 -0.002848452823427944
0.002588316640358391 -0.0021638275180995616 -0.003082555847486125
0.0026682394756434025 -0.0037403885964731516 -0.003527460241691105
0.0027488252887362514 -0.0039761163124296785 -0.0035370549323475208
0.002621077625504211 -0.003916784563303343 -0.0033860264348923347
0.0026875704710788814 -0.005594135199973162 -0.0010808849341618588
0.002707919903286068 -0.005017691292215296 -0.001531965071651377
0.002414065293233539 -0.003964434675507022 -0.0023612083513774433
0.002490119909257333 -0.003936881483994526 -0.0023841683952896824
0.002357086939388408 -0.0014813990688465897 -0.0025918267265128726
0.002561689388759057 -0.0016856536250839415 -0.002767619072758909
0.0025942965599454913 -0.003407473580313866 -0.003460243535353532
0.0022785939655420814 -0.006206268393744264 -0.0017937330719956727
0.002570928758753515 -0.005929807225795219 -0.0013096900045680164
0.0024475211302389666 -0.003959391947146755 -0.002378612923212326
0.0026221541900463634 -0.0039626765880286735 -0.002519082824141633
8.92720870378662E-4 -0.0025748757209574104 -0.002825204316442043
9.787730060994543E-4 -0.0031942696436053778 -0.002456443101938186
0.0026887417681248646 -0.0031201513182267373 -0.0037877414794582555
0.002944436966064316 -0.003996734256880344 -0.0039052280895412192
0.0028896154169888847 -0.004038512456452376 -0.003726398717696535
0.0027633277544950635 -0.005546412690480352 -0.0013601937512844817
0.0025703217106946186 -0.003972021752530556 -0.0024894239186630807
0.0024476473311950816 -0.003970309346505554 -0.0017049739386390571
0.00235600751314413 -0.001401778040621097 -0.003176047970086844
8.347887592615917E-4 -0.0027544601242190927 -0.002790307522784068
0.0012549359642094558 -0.004466950172171271 -0.0018202188627400168
0.003071328131336762 -0.0039301105357711094 -0.004152422791298384
0.0031012235585481636 -0.004013243052981872 -0.003905683540712923
0.0025873533261606347 -0.006189263686161176 -0.001628928108742639
0.002712399548888495 -0.005983870656218402 -0.0015786052927450093
0.00288236535018432 -0.004046651536885512 -0.0035700985257985382
0.0030659837264725345 -0.004056473648912394 -0.003592493418088976
0.002767464006127827 -0.005718740157036581 -0.0017351567496967741
0.002463863392595502 -0.0039431947656148455 -0.0021030505170330062
0.002681690124386353 -0.0039518152433362826 -0.0025562234413552534
0.00264089354806276 -0.003930954232397702 -0.002498449268268455
0.001789618237287185 -0.0018800220259216722 -0.0029038344716793532
7.67851969383201E-4 -0.002628853269838519 -0.002982663659461766
0.0018978976371464252 -0.005646437135382968 -0.001624461326974284
0.0032097336519012615 -0.0038017065929728186 -0.004396772135180484
0.0029369391402885425 -0.0038727834832528443 -0.0040024868820260386
0.0030804408911744153 -0.003979726150802139 -0.004077851888562677
0.003248516613854405 -0.004019466009515624 -0.0038551414349633204
0.0033181727266556097 -0.004041943073456048 -0.003715762219533218
0.002760143751683331 -0.004008188416636973 -0.003119799523261445
0.0026727994280442216 -0.004628774351290805 -0.0020175431189128163
0.002588037006612036 -0.00425562416516774 -0.0019491689064805022
0.00220480132789778 -0.001477391289159816 -0.0031591403304070584
0.0022838224085393473 -0.001406062443776313 -0.0034714828953439887
7.73811273106217E-4 -0.0024674578665632558 -0.0033649948575388564
5.02720375739903E-4 -0.003084027263945637 -0.0030810473199485355
6.04885643005889E-4 -0.003865033879556084 -0.002545973262920562
6.231941410119866E-4 -0.004310824220515214 -0.002359733166352322
0.0029245861939985766 -0.0027891338375971024 -0.0046917147487082
0.0034172611773090797 -0.0037686916370079046 -0.004548338876453722
0.0035926347727040266 -0.0039060005242446075 -0.004155321945008816
0.003162356562824065 -0.004068481981068138 -0.0035734708104311454
0.003178299643375684 -0.0040618556591330455 -0.003396120367802885
0.0026562369226282197 -0.003919906545695829 -0.0025324919289372253
0.002558899499765484 -0.0039028778848503587 -0.0024605485947961974
0.002046149387694857 -0.001518731945066738 -0.003626308323033573
0.0024049485054286296 -0.001483909733301577 -0.0034426875398309302
3.7549119728935205E-4 -0.0041944206885689336 -0.002639886357954753
3.5468788108684944E-4 -0.004627921538584035 -0.0026306851802059884
5.886097995849922E-4 -0.005054762145187925 -0.0023731962153692963
0.002983712927337164 -0.003312866743915863 -0.004433638949005059
0.0031289118132266786 -0.003632582228552452 -0.004427698232701922
8.334199266548099E-4 -0.0059163370241075335 -0.002466918866475362
0.0025742849264445357 -0.0063227446803000836 -0.001945385186360751
0.002656282478038705 -0.006129336494375313 -0.0021647178569291522
0.0034503839166743406 -0.004073239781615174 -0.0035688232747040547
0.0025665822173459225 -0.004146165244394067 -0.002257084689304225
0.0025223615961960555 -0.0039346341728136915 -0.0023696064522622344
0.0022043706473922277 -0.0014383956641124897 -0.0038627253368791296
6.050199092089037E-4 -0.002668827927323008 -0.0032491029676578478
0.0026757072195699675 -0.0022809610612008 -0.004933264098349073
6.89380197458152E-4 -0.005320029080544808 -0.002342019148570795
0.0035021104377597726 -0.0036272840767992112 -0.0047598394497402165
0.0032949274932353822 -0.003888426733581374 -0.004287963622964043
0.0023160590890557624 -0.006514777284889968 -0.0023320954845056207
0.003677574634590249 -0.004029619161015556 -0.003787083894498549
0.003928070508254682 -0.004131870764100709 -0.0035246732199468362
0.003633092944942411 -0.004089742648984163 -0.0035646152562267513
0.0027217264114648486 -0.005677268130163402 -0.002118865093343567
0.003549704626850134 -0.004114636264561666 -0.003315460627028623
0.0027112703652956613 -0.005055058549752845 -0.0022760935872565497
0.0025873662903355215 -0.004041871435913733 -0.00252882501204862
0.0016757640516768698 -0.0017121130400862567 -0.003973785252069335
0.0039263547637483675 -0.004029359470357131 -0.0037967205888381093
0.004183588727951946 -0.004262588687605677 -0.0032944454620490076
0.0026962554502830967 -0.005417303404459353 -0.00233854025536664
0.0040208873255626575 -0.004280735368713372 -0.003144843532542585
0.0031269297993096997 -0.003996161210033258 -0.0028564169365571483
0.0029273011708981556 -0.003923104454393868 -0.0029553497985862903
0.0026815964809511423 -0.003944961339139872 -0.002659097295584871
0.0019454415098585042 -0.0015399419859382965 -0.004281898634336212
0.002177755794970078 -0.00151636950151499 -0.0043417709498960845
4.877509596309949E-4 -0.0026527893890075263 -0.003708487330259108
0.002498472581088047 -0.0018265572423890634 -0.004002756704153949
0.0012347812195277477 -0.00641313262562341 -0.0025424599665684173
0.0014881876282748273 -0.005944446126602313 -0.0021457694492164514
0.004144611134008385 -0.0040426725869766285 -0.0037454407206226987
0.0025387650108548727 -0.006428469182279366 -0.0022797564446799656
0.004402191724184476 -0.004205134487316584 -0.003415429918714129
0.004850229140033825 -0.00447730890013555 -0.0029582691788596236
0.00443457688757856 -0.004428665989447189 -0.003046104197332761
0.0047554581145256795 -0.0047496701756126435 -0.0026400271020110043
0.004460075654055269 -0.004567354392392283 -0.0027906892731904423
0.003663124964834833 -0.004167084414266109 -0.0030645213772647873
0.0033929038683967656 -0.003059561761821786 -0.005627361341539894
0.0037026790376362673 -0.003730276802414815 -0.004572890485921745
0.0038609861745431623 -0.0037747047686198625 -0.00442766749647742
0.0018772288368792784 -0.006178618989787105 -0.002012434998282309
0.00393437528782237 -0.003821343496138537 -0.004288844874332813
0.003998861341519723 -0.003919414235609013 -0.004037767528649378
0.004504602592262819 -0.003944553530387171 -0.003841998724104367
0.004814076522271818 -0.004145727562075107 -0.00341289528539835
0.0026703926151871098 -0.004856416108693907 -0.0025673253737580376
0.004669296036268542 -0.004755745732523152 -0.002611626151248702
0.002638442635888418 -0.00448704043201501 -0.0024595182804427753
0.004682130754753349 -0.004760481376201952 -0.0025778734923074128
0.0019121276853075648 -0.0016211513633056112 -0.004878414765387541
0.002327433456683858 -0.0016407687201914528 -0.004418088652288973
4.64147590221983E-5 -0.00391114188936792 -0.003201210101250134
0.003554320282418083 -0.0033458676836385062 -0.005229187715686128
1.3200397267896968E-4 -0.00561911957694336 -0.002878628445223019
4.3265281282547354E-4 -0.006134603041351643 -0.0027429108857953545
5.678723275553254E-4 -0.0063590224671885975 -0.002789833081048625
0.004253459135369024 -0.0036969023154474604 -0.00443150397025323
0.003907344948116331 -0.0037919432975453467 -0.004369723667474577
0.004990394107083483 -0.004831718404586832 -0.002526674725886755
0.005041345946280859 -0.004989114632230368 -0.002343955867405728
0.004928497729841929 -0.004915893141720358 -0.0024489796014475953
0.004827942954377797 -0.004907158619633241 -0.002439873248109776
0.00404598859719602 -0.004301502562088508 -0.0028855811126630563
0.004805829949561213 -0.004867302053390862 -0.002450511733343415
0.0023176565105078872 -0.0019226431822696871 -0.005163652886687023
8.67822512911129E-4 -0.006471610103841097 -0.00274431590949154
0.004932058629880009 -0.0037150230076039566 -0.004031658876124539
0.004970754726594427 -0.003948769784618633 -0.0036419547511109917
0.0023490084130262374 -0.0064175396564973 -0.002702611287438134
0.005242573958039138 -0.00474504345515791 -0.002533562315006938
0.0024934806928632296 -0.005893455820948638 -0.002841399635095243
0.005151146513611217 -0.0049595869213417635 -0.00234222817820563
0.005208430923090776 -0.005096563822771656 -0.002158451084994613
0.004958932158239698 -0.004985704172609657 -0.0023555125121321385
0.003961390855158554 -0.0041525922610748285 -0.0028713999620335637
0.002624974947685966 -0.0043175862934850375 -0.002798254107326621
0.002702287646838991 -0.00410552289450661 -0.0029583130642774707
0.00283080803144642 -0.003966310413812926 -0.0030138156235412655
0.0049562756436585 -0.005027818619601609 -0.002283193223444099
0.0015578601112135333 -0.0017448261376833633 -0.00478066737842647
0.0021389498224382276 -0.0016631898225978306 -0.004905101263958725
0.0010018780756293763 -0.0021456380210215856 -0.004175413773444187
0.0025261917780292553 -0.0023998210744599208 -0.006205806711565539
-4.4386169765882924E-4 -0.003993413110675361 -0.0037426168002476917
0.003605620488590701 -0.003025632429004913 -0.006189763765724547
-1.6099148236899498E-4 -0.005982124794281596 -0.0031071073590130133
2.3958462145829613E-4 -0.006325289008094546 -0.002957185653793294
0.004022034827626052 -0.0034697739147412595 -0.005055020237922754
0.0011696035723637187 -0.006696352936364129 -0.0028616993304640243
0.005284408749436232 -0.004974060820069693 -0.0022714015811726575
0.002638007012245284 -0.004427627647741041 -0.00338804318511041
0.0050420122848955935 -0.0050979332453565855 -0.0022061060344985704
0.005105706882091599 -0.00517148069886036 -0.0021111156671156936
0.00490663451621407 -0.0049265403576919916 -0.0023652089773134573
0.0017169712876878554 -0.0017194161177632847 -0.005203328886744375
0.003328676759906262 -0.002877674089944434 -0.0059097537043118036
0.003534598125549012 -0.0029661891001942745 -0.006221891073397568
4.750223111669859E-4 -0.006513356478693208 -0.0031672955059387376
0.0051580115411493845 -0.0035728532961146883 -0.004135168679899742
0.005225441494320737 -0.003832211108819646 -0.0036779456069636262
0.005321298477255145 -0.004162046412487737 -0.003157857609745173
0.0020983675270149714 -0.006601113249348245 -0.0027200568576579323
0.0053532884561182355 -0.004917809276379455 -0.0023008393120492036
0.0025788066942693875 -0.005309151770448265 -0.0029064101753922037
0.005242715638105698 -0.005246431599243999 -0.001987986544753888
0.003083167345060803 -0.0039053262314425836 -0.003027807688469612
0.005100545635755866 -0.005104625735829362 -0.002167008264267771
0.005003080001236279 -0.004923532101094692 -0.0023362548486578322
0.001917771013547036 -0.0018163015828289938 -0.00542947140687485
0.002118618203491648 -0.0020415922074915557 -0.005800725244303544