# vtk DataFile Version 3.0
vtk output
ASCII
DATASET POLYDATA
POINTS 1299 float
-11.928847718509706 26.605266715021457 -8.748422078485897
-11.813831699249398 27.816154360662495 -8.499519985269794
-13.112826906887781 23.543695332486497 -8.882080355292684
-14.358742337157281 25.201539423583935 -8.274023824046282
-12.933408397992455 26.48060947335121 -8.49540162877416
-11.519333249229478 25.51064725190507 -9.012622462491995
-11.257113997302389 26.946950125820216 -8.803068419839306
-10.75088632621933 28.08985517866176 -8.312767259274258
-13.593151867757886 22.807414086422614 -8.790281714882095
-12.005113346002878 24.669083300153698 -8.837436951346724
-10.796877448242824 25.80405235870474 -8.79709760607768
-13.383150791975934 21.622411105867176 -8.654474984523729
-12.525277262139316 22.455498848137115 -8.783821557382542
-13.493643774012826 21.979899526978908 -8.807373786156957
-14.44961214681793 22.12967148159873 -8.163820709093878
-16.666029997913643 26.75069471111462 -7.531650795576705
-15.40614796322878 27.691115711204557 -7.749348842791718
-13.021846873085533 21.014304322496198 -8.039602667166909
-18.93771032366594 27.97926641312014 -6.647060034245923
-16.91616692021186 29.176701730354807 -7.160960270543394
-8.520188558685213 29.312778027807724 -7.669176646357591
-6.714682267588476 31.41017337219212 -6.936223067839715
-13.536418375062354 30.048149015616325 -7.303238553571477
-10.369931840485958 30.698301594730626 -7.340721611190202
-16.982937457366553 34.669563590260644 -5.2156925257803275
-12.247711132074878 33.912299135506785 -5.672446782371079
-14.154251439328792 35.9215774426627 -4.413466531573826
-13.671095776513063 18.303674705072147 -6.8116768833500245
-13.420077066997326 18.84988742470598 -7.014641429318027
-13.787390759469222 19.2940403476015 -7.26025312450349
-12.131175180249846 19.889423316636552 -7.567808178058214
-13.700677406572778 19.723057028601744 -7.468248595094007
-6.6415199105534155 23.187698835156493 -7.313925423329338
-9.420153259640166 26.573335580473902 -8.36025354261524
-19.276853504212276 31.05690768344823 -6.29045276137504
-21.026342188416585 32.7429815459358 -5.557246862662799
-17.309352545791555 31.85643169863035 -6.42210924157108
-10.95582309379709 32.90204654575853 -6.285634989008565
-19.56740419251741 34.1957728739245 -5.341237637661245
-13.237957209208082 17.841522018528178 -6.834208568374422
-14.106658559725224 18.03260734693669 -6.792375918009095
-9.161564586616784 23.346716282743415 -8.00732205821419
-6.902019993114843 21.975454160575286 -7.074883636389763
-4.700969290011763 23.983629613787116 -6.145442920404325
-6.172940858985382 24.16809381291885 -7.258094423675754
-17.40159210135704 24.31612527100464 -6.9316628308134085
-5.921237983279383 25.757683154635284 -7.147522478611867
-6.331198553479445 28.555623835003885 -7.199215934099728
-8.269711614733282 26.865011206841785 -8.003502308381991
-21.38167733027951 30.349794178981796 -5.658472886334362
-5.246334187347663 32.039053387052206 -6.702609023708432
-22.837232479770037 33.15757419921669 -4.83888492922737
-4.838241827745429 33.1658005394897 -6.49107856530262
-25.324038919656378 34.73240421315074 -3.441294015110106
-21.619856750693643 34.6855626718714 -4.8659872220972815
-10.47389555222177 36.41407910379764 -4.056939460975708
-23.03569937872262 35.53424910915825 -4.158788339929559
-19.029847347350724 36.42403540133735 -4.338294069693536
-13.333407555658466 17.67592731326043 -6.754553122411814
-10.152481050396883 20.401225491453513 -7.5949553458709325
-8.708867836121373 20.465370328774338 -7.330054151716559
-9.302480484541169 21.182892117309418 -7.838085942440935
-7.270905693300455 20.53683695429366 -6.883117774582341
-4.959940347646765 25.336954683202215 -6.726115171968628
-21.454733120320977 26.691368234891154 -5.289582765873377
-24.187969335549763 30.53983501635033 -4.3208028060276185
-4.152155832572884 31.90948831922948 -6.062691311607021
-4.441258052760865 33.492475088113544 -6.09255815154677
-4.544149559965219 32.80385994526648 -6.499793433791716
-8.392266316516682 33.07332684866245 -6.218584119246586
-26.29994277038301 36.15286133581407 -2.8434605920889324
-23.892208202081235 37.21842859232476 -3.145530437793986
-21.292000340794083 37.277841478847556 -3.6402090969632797
-13.205435743420997 17.58038225567788 -6.572138079009685
-14.171519712856544 17.78456888197755 -6.432685556616171
-7.871600844458413 20.03225192912369 -7.055759666080075
-15.70227292910561 19.679201910045265 -6.261160756469617
-5.393463962636618 21.54027691630128 -5.617561076951484
-19.768257025335167 22.950378397667375 -5.093253956570981
-25.152149689058444 27.19843774736843 -3.39620135658014
-28.550570205360053 31.18114884187043 -2.193992560608817
-3.6981389069520234 35.094685846643145 -4.57203113188133
-5.603576558375706 33.676163059043695 -6.0278909679091015
-27.572421408347598 35.68017988759174 -2.259222676268039
-28.416048065575584 38.241898090486536 -0.9152358853348503
-26.030422678680704 37.71199991184612 -2.195996606963957
-13.45485202759906 17.48694248420616 -6.14612822961016
-11.540211541138822 18.25815402686774 -6.276649248895521
-7.775737483635758 19.796125209348663 -6.3801478477201226
-2.1979463840003457 32.74185631149772 -4.575987815692967
-31.732886074735163 32.47816670337041 -0.9997559486196507
-6.680189717549947 36.388157602499355 -4.052684092743658
-18.173362646203003 38.950608042176306 -2.5826778864386393
-13.252160133594248 17.331382906865315 -5.566383296477015
-18.153992936100042 19.42469855181398 -4.224320407453948
-3.5247145988004323 27.895472808066863 -5.60808771562598
-2.123136527181391 34.64536450781091 -4.324937605256492
-30.895388159796276 35.50802217723039 -0.669250412215264
-23.785292376907996 40.08323295042817 -1.3788987273592341
-21.11741108305926 39.816654427340154 -2.0638987910606637
-27.17009743777069 40.862477828784485 0.04851263335426619
-14.696364073201881 17.566415915348333 -5.071876753804539
-6.106313171632616 19.2871683459544 -3.9753584833809517
-22.733899428339033 24.201815495801647 -3.760864639973878
-25.737804147021755 24.171810514884832 -1.809873150982526
-27.821218776538167 26.93543696596164 -1.8998255069732768
-0.9257572641658889 30.311107723547043 -3.4619233139337964
-1.7515344838336684 35.672368248089825 -3.489931005716524
-30.707315724546753 40.76213275085197 1.5850756656579403
-13.640525906464912 40.72231203404605 -0.7959921315946974
-1.4926995051165879 34.44578530468873 -3.9763045725820727
-0.5881199148626307 34.151891651028905 -2.8182281505304743
-33.81001041480717 33.14536040590898 -0.15303944679003792
-4.851355228070185 38.12586667637616 -2.5824918598703315
-21.35159408657724 42.087421663901864 -0.06980915406591781
-28.647206420450733 43.04023924852376 1.7851299132929532
-26.02913190006121 44.18374625202001 2.6063800416369225
-6.951426573848628 17.680712017589947 -3.0849217589340148
-5.2813534209973465 17.399899214224483 -1.979051978970484
-21.14006084717664 20.695112426688844 -2.392519434159229
-33.59268323346669 30.07556792584715 -0.10941302752074519
-36.30581286134644 32.341122220459916 0.5122998295059304
-34.60938112037689 31.831957367307183 -0.13124822523925767
-2.719052955137264 37.66169152031601 -2.4768685364816116
-7.638912515719279 40.841964449841846 0.018123168489867968
-29.896934770505577 42.96341642543277 2.0778959295735446
-29.224373176634227 44.341681292357094 3.035903681192788
-13.007409712591143 16.867854078077954 -4.146915249543131
-17.38566127495716 18.50073912055175 -3.5818411355305853
-30.371617525357554 27.607555908885974 -0.7922857302368508
0.9092282643692421 36.19033727478219 0.027273168342451182
-0.8889058163442013 37.02037354665493 -1.7582059095101188
-29.796151225354485 43.82561898587387 2.5828768670004165
-31.02169835747041 44.28328260984743 3.8471311787492626
-4.01108538781202 17.152827824122486 -1.9722234704013346
-2.6378333139125787 19.435296036937682 -2.0823362752341525
-29.004815816520978 25.028275214413306 -0.36861164702747096
-38.60852914863865 31.24104620590833 1.04430496068964
-38.39032382805868 32.371187929145115 0.9968260698549342
-4.1064867330921455 39.57222300802759 -1.1140688374402974
-31.08576757297435 43.403272717600395 3.2201595500621654
-17.969476273536404 43.061248207840386 0.921814103681671
-13.695395422892314 16.31812444548352 -3.0971895749595335
-3.364638296115352 17.609484435766536 -1.7980848267249296
-0.1129810999066127 24.79501272192769 -2.1049025615671413
-39.20903213792492 30.05388593885478 1.4685131246741407
-40.19139517941716 32.2704221987237 1.8899467882691232
-0.35344197429596697 38.0904489482545 -0.4356583181271654
-1.9158650268017334 39.26538395070483 -0.41150484920366237
-38.13654685181744 33.71887400407019 1.3198055782072124
-39.84386175350278 34.983610539617864 2.388697934782854
-4.030630236939671 40.82896763129159 0.5577852445428013
-21.453095269262977 44.93211812156967 2.86921482232699
-31.05374850702193 44.60028150574888 4.343033580338469
-29.813169186966828 44.74015428718231 4.190074179242317
-9.553853095978914 16.96532843194205 -2.713750106838439
-3.5964844549818857 17.105785150764014 -1.4182829088427122
0.9389284011054376 31.78656375693342 -1.333653403569977
-39.13832976955649 28.717544667821716 2.1519440156112744
-37.30836881118468 29.89482459729425 0.995269221030041
-39.79591516861293 30.829894224728456 1.5477733297786533
-41.55136741030693 33.5107523685032 2.7539626923219096
-42.08764814176775 35.08423896908818 3.4177483893042497
-35.568592885339655 36.595969163925965 1.7776996571950925
-12.065208981020598 43.96276627928128 2.786411169261903
-15.311400007260383 44.23898781148352 2.4649628607702008
-12.507989860175202 16.27817690849971 -2.9712088656501665
-13.62736241039383 16.117140248313028 -2.4502630842460293
-4.475095869907187 16.76404726988169 -0.4581837085432084
-1.6928911088704126 18.02863656052716 -0.3563807839592322
0.1571833152906205 20.632355004587705 -0.9746153549898118
1.2618387041371806 22.046419319901577 -0.9581280294031265
-28.155897194002023 21.819113425229784 1.9320987759708854
[...]
POINT_DATA 1299
FIELD PCA 16
mode_1 3 1299 float
0.0022512054777191425 -0.003532048493019724 4.821167633722622E-4
0.0022832117891022153 -0.003720762155512152 4.512197970220968E-4
0.002151297324656959 -0.0029956168425814885 4.269894112991527E-4
0.0021519493709978984 -0.003232805212660915 2.7624015701580896E-4
0.0022245037061204907 -0.003463824714561212 4.1018093633950496E-4
0.002229138927503688 -0.0033906841154244167 5.190827199215697E-4
0.002270097049635207 -0.003625452033708386 5.000607161579903E-4
0.00229289999655239 -0.003829323169534755 4.1340633509301107E-4
0.002129512920903182 -0.0028470914149630717 3.739303025482399E-4
0.002189381129641004 -0.003235462081090993 4.529344542328061E-4
0.002233470825930896 -0.003480257587157075 4.7495825274429423E-4
0.0021116615413081965 -0.0026433205961546953 3.052830796131375E-4
0.002133085392338938 -0.0028345607013515496 3.811007661546636E-4
0.0021182745114046056 -0.0027040108221357212 3.592908368898477E-4
0.002096883042315553 -0.002704795895503002 1.388114504014156E-4
0.0021002219274847767 -0.003472911203207469 5.479597138857453E-5
0.0021663525513276865 -0.003607911118221045 2.0372537914026373E-4
0.002094013150405575 -0.002549438535161316 1.0642743357384927E-4
0.0020632425679219975 -0.0036773651571377387 -2.3218903380294996E-4
0.0021503241736069894 -0.003823095186713683 6.400417965254572E-5
0.002312272353592582 -0.0041780531963183775 2.843197461646428E-4
0.0023488950632829415 -0.004655955216724088 1.4092778695235409E-4
0.0023026231133364875 -0.003942936053111903 2.366691023536067E-4
0.002362130095047442 -0.004216941869230622 2.65851365533271E-4
0.002390692027767862 -0.004363064442555837 -9.379151517099162E-5
0.0024615718986722725 -0.004432905914797562 4.908215580087864E-5
0.0025187177301189308 -0.00451356657330235 -1.346507366215187E-4
0.0020336417617214954 -0.001949215522243333 -3.281640151880404E-4
0.002040139369692942 -0.0020891007546803234 -2.534727961208195E-4
0.0020593538271161675 -0.002169718569385752 -1.8715572537339592E-4
0.0020660140326052277 -0.002359566931337017 -2.7534465927386924E-5
0.0020693502221677176 -0.0022631238168730507 -1.1440509590389069E-4
0.0019976113715135715 -0.003420606035395096 9.29318602983368E-5
0.0022448158643017485 -0.0036932431981244467 3.876603170116852E-4
0.0021300693594123107 -0.004084682845652761 -1.5474612490938387E-4
0.0021405057218029907 -0.004317028485925306 -3.3164266165206505E-4
0.0022357332588497335 -0.004133823526051954 1.2008124733105061E-5
0.0024318901662819647 -0.004427505908849904 1.2645895666406042E-4
0.0022653178868491538 -0.0043852548555962 -2.0542648120998105E-4
0.002031714406351454 -0.0018491262932281618 -3.070600579721448E-4
0.0020447461767832305 -0.0018547996172176577 -3.519000133756706E-4
0.002115849197748362 -0.00320276638364552 2.3648943421451313E-4
0.0019588852229944424 -0.003170949425044797 1.1246382909755016E-5
0.0018547046200811416 -0.0037603894502149806 -1.9594529281055583E-4
0.002014520939727041 -0.0036374765499484693 9.25671122969799E-5
0.0020550312004215926 -0.0030773801041659877 -2.686421846010873E-4
0.0020679547137308057 -0.003917512673524069 8.176577097444105E-5
0.002213617519046633 -0.004293443683765525 1.326028220696331E-4
0.0022304759994310787 -0.0038361407398156007 3.0391921418108486E-4
0.002073740637936803 -0.004047211534155544 -4.972129436966714E-4
0.002333346196998044 -0.0049221747620065565 6.317178256158302E-5
0.0021561579650238452 -0.0043962844419277525 -6.152202508233914E-4
0.0023706598299849833 -0.005130114563840271 2.7390654581112438E-5
0.0023057720853286758 -0.004554207511165444 -0.001046488010467334
0.002227291963778826 -0.004496646456046339 -4.09543828677563E-4
0.0025480081240595595 -0.004820533540345759 -1.8467253642880953E-4
0.0022773679764151906 -0.004586951513685538 -6.266376200010754E-4
0.0024195946104200597 -0.004511054596059365 -2.701119741077533E-4
0.002032675728168611 -0.0018023517771625797 -3.385360392497001E-4
0.0020600354351422738 -0.0025745188901807404 5.3146487304093096E-5
0.002010485021977565 -0.0027104161596224396 2.5257911938175614E-5
0.0020766457158933787 -0.0027847324464962742 1.6422948053827432E-4
0.0019323461301545693 -0.0028628333566347456 -6.126524635719674E-5
0.001985012839116557 -0.003955210186448435 -2.3267874896709868E-5
0.0020391074885650817 -0.003526342649554394 -8.558835996402528E-4
0.002137467040096521 -0.00411526094064191 -0.0010552729754463098
0.0022625685797393663 -0.005030006184116258 -9.01972455798355E-5
0.00236335924839053 -0.005216589308706902 -4.910326402861681E-5
0.0023421415427173184 -0.005119511120005588 1.3386770953064282E-5
0.0024295531409489575 -0.004679167727162859 8.293459569987401E-5
0.002392627641830257 -0.004680952321124324 -0.0011573670826979957
0.0024190167950248953 -0.00465841777763081 -8.043000266121415E-4
0.0024312221251355857 -0.004597005125288621 -5.003053626141141E-4
0.002022311533216998 -0.0017906403647514322 -3.9583949354708226E-4
0.002031075133816857 -0.0017998234320129288 -4.7619239320169E-4
0.0019617733811808685 -0.0027050401274378477 -2.8232312767322156E-5
0.002044228392483731 -0.0022139778044237106 -5.663883817295657E-4
0.0017549816278913481 -0.0032531145248851723 -3.881195983352365E-4
0.002032659588310567 -0.002869322318685098 -0.0010146092707750956
0.0021361683812209306 -0.003687721726656506 -0.0016433299272803532
0.0023970119115586767 -0.004261167587253579 -0.0019139611194112858
0.002379519767038518 -0.005490193969192309 -3.087681708585993E-4
0.002403516399450867 -0.005084633785738218 -1.647282698441993E-5
0.0024722199932861355 -0.004630669846994241 -0.0014299986441504834
0.00272190013493951 -0.004674348740512271 -0.0015556985063188845
0.0025229214944525132 -0.004688440735077775 -0.001146586015791562
0.0020045291245691967 -0.0017717896406628428 -5.47731517873803E-4
0.0019594647694857826 -0.00206874021791528 -4.231556999239223E-4
0.0018845975504079417 -0.002681868508027404 -2.4024072846327103E-4
0.0021631558449539175 -0.005387640662297647 -4.2221782900071916E-4
0.002654616871612394 -0.004480390590693187 -0.002340395425921213
0.0025069365473822025 -0.005231833129984691 -2.634292107512779E-4
0.002617306569393011 -0.004607027709734688 -4.595951509350184E-4
0.0019659819978687892 -0.001765540697265241 -7.312939525853353E-4
0.0020362707908756447 -0.0021801902529818393 -0.001334202843749921
0.0019621375275439166 -0.004514663403037136 -2.7474222540627076E-4
0.0022864983456486925 -0.005661674377930941 -4.278680960410906E-4
0.0027506830037322873 -0.004593165382995685 -0.0020331782256953913
0.0026955102964942965 -0.004642204057993795 -9.517887755124044E-4
0.00264762920049378 -0.004631870396645233 -6.581110377954752E-4
0.0028879704250999055 -0.0046383079091061544 -0.0014338207268520886
0.0019756140807058492 -0.0017780635890221606 -9.431003276349043E-4
0.0015767560633696961 -0.002766368056009011 -9.334887125322964E-4
0.002063620962834313 -0.003153477413957965 -0.0015481757267821097
0.002221023992325294 -0.0032172410252758747 -0.002344175982091574
0.0022808953193839358 -0.0037207524629345235 -0.0023024056540903517
0.0018353462805636319 -0.0051898099721600565 -7.591917326948925E-4
0.0023012351716797702 -0.005830934829807324 -5.729549739413188E-4
0.0031512686568886095 -0.004587832340785559 -0.001957460304761625
0.002729151627532399 -0.004867720514165988 -6.003113402191586E-4
0.0022267438703443116 -0.005721305586594749 -5.247382867722014E-4
0.002078754334757103 -0.005779213156683464 -7.926188944867398E-4
0.002863210675322917 -0.0045667511970782166 -0.002605296081045344
0.002525011589850222 -0.0056400293150553 -5.332084994854171E-4
0.0028638263306110965 -0.004601120398363114 -9.113867407609392E-4
0.0031745752168259073 -0.004567429292815946 -0.001714188028014256
0.0032001826091659366 -0.004489161272456079 -0.0015490179993952458
0.0015242749590691097 -0.0023685444637941435 -0.0012429809074491367
0.0013206829806700962 -0.0024775669118632378 -0.0015050090549802424
0.0021174537718918786 -0.002481837587841655 -0.0020019947277462756
0.0027998813718181944 -0.004283697274139993 -0.0029001536616003027
0.0030736363786511953 -0.004584172448233501 -0.0029869614869043343
0.002869296468202565 -0.0045343172007146345 -0.0028197912067295175
0.002431059468205741 -0.005902654922512936 -6.578164255222464E-4
0.0026248555223514526 -0.005485902547498562 -8.055007174603609E-4
0.003241796582096717 -0.004568897028567687 -0.0018608004373738417
0.0033626654862592693 -0.004486454393072447 -0.0018517790113094386
0.0018708951077120125 -0.0017145354276500492 -0.001179064685160702
0.001998251266074176 -0.0019884351196984714 -0.0015117461753228725
0.0024999632851923506 -0.003872891223312235 -0.0027326021659474188
0.0019348817441175797 -0.006203398014415955 -0.0013472065359009862
0.00226250468909098 -0.006087629338346916 -8.956328745276079E-4
0.0033191369623149117 -0.004531929696988947 -0.001873554172957739
0.0035035664485206933 -0.004459871864779039 -0.0020744004027120457
0.0012324958007759238 -0.0025334847766995 -0.0014807795925586159
0.0011830767656124616 -0.0031515131110990556 -0.0014015002317013334
0.0024373952660948633 -0.003436776749981609 -0.0029405909944956077
0.003282450724780704 -0.0045788265962839365 -0.0033326307181251982
0.0032768535860821578 -0.004646159065720859 -0.0031843635581133498
0.0025351628434547102 -0.005881659196032837 -7.811828681882987E-4
0.0034118883954925763 -0.004507895890021024 -0.0020484019330136794
0.002900226665359268 -0.004674173704463567 -8.718071838675707E-4
0.0018408625269301596 -0.001563961332833116 -0.001556955140439084
0.001168524357872539 -0.002698843811163558 -0.0015129224470792086
0.0012294342753830481 -0.004435153599737051 -0.0012589845739168998
0.003371636709098705 -0.004453806188539196 -0.0035454463697594
0.0035362534331914333 -0.004556943691999349 -0.003359625256876973
0.002236896488305252 -0.006271615940622534 -0.001134564707626034
0.0023963501725426223 -0.006164681598229023 -0.001018937500442434
0.0033286457021396067 -0.004646065107190959 -0.003056835238643086
0.0036070723003019073 -0.004594105634437033 -0.0031105078881065707
0.0025136155046890964 -0.0059880682151095535 -0.0010372500371840995
0.0031050297974914718 -0.004535283261755537 -0.0012614187052794417
0.0035643985627330284 -0.004421679607306048 -0.002111700954513307
0.003504192832232962 -0.004415644301468174 -0.0019940647481692113
0.0016161327628800954 -0.0020125376584917897 -0.0014503480740468025
0.0011384968499635853 -0.0025729356527238044 -0.0016253008493001776
0.0016673641078394038 -0.0056315797146352375 -0.0012242660821765387
0.0034472578165550445 -0.004211536847310272 -0.003749949322579508
0.0031673266749089957 -0.0043891771738180305 -0.0033854457306368856
0.0034374629610547567 -0.004528207152768665 -0.0034939014772535273
0.003771966714576738 -0.00451018890855337 -0.0033395615286996223
0.003907607369215458 -0.004484947885243364 -0.003244767318924425
0.0032878658132037514 -0.004591634410571261 -0.002657345686061734
0.0028154165502766657 -0.005115767401452027 -0.0010520940934914153
0.002917800252642413 -0.004828716568570114 -9.965396997582497E-4
0.0017778813975552104 -0.0016249154177274746 -0.001538933321846754
0.0017982060914697308 -0.0015345438078078798 -0.0017554542491056014
0.0011114330681489593 -0.0024381371521123773 -0.001900858555863888
8.659015718165853E-4 -0.0029785814028635955 -0.00187487370597267
8.472363765434369E-4 -0.003722121837446175 -0.0016709417630524528
7.983573821706662E-4 -0.004141600619172954 -0.0016511022449722627
0.0025914230109648577 -0.002804754079392753 -0.003662346507733975
0.003707279040192725 -0.004111261916864017 -0.003905429287701468
0.004112707007972558 -0.004249194704270172 -0.0036096146553895522
0.0037573245574951835 -0.0045656485904393765 -0.00311758953473451
0.0038185746855328036 -0.004507113536661877 -0.002991604115272248
0.003503450861087045 -0.004375409045951156 -0.0019687263554399245
0.0033980183600445042 -0.0043819749795426235 -0.001808382687324046
0.001695175799289286 -0.0016234033045450253 -0.0018759049612119213
0.0018748750734570445 -0.0016450859456936901 -0.0018362589655358161
6.219712577966328E-4 -0.003988993868092713 -0.0018575253126804046
4.958520325720766E-4 -0.00440014146695266 -0.00200562987425063
6.017797264160686E-4 -0.004831889339161101 -0.001900035248477684
0.0028519423924351726 -0.003506181006748864 -0.0036169534048064423
0.00322378315606892 -0.0039451438955203375 -0.0037299690494214197
6.547560158553742E-4 -0.005647708814916437 -0.0021336112295640254
0.002196864168971827 -0.006366661292616806 -0.001364417800318434
0.002314480628750861 -0.006248033656617589 -0.001435886528505527
0.004103683206635722 -0.004427972602757739 -0.0031630895060122044
0.003064476519615611 -0.004649653918509919 -0.0012871106992930826
0.0032731789579682775 -0.004431824429413874 -0.001575408445411257
0.0017565779684567831 -0.0015378802132829795 -0.002052425343291967
0.0010076615052689937 -0.0026001012758778115 -0.0018600660927497795
0.0023228290495717003 -0.002244808871561945 -0.0036120217875596993
6.348200164509046E-4 -0.00508866128655532 -0.0019292449968148805
0.0037081191983480218 -0.003834831557123603 -0.004088318891981524
0.0036527717134459204 -0.00433185264128667 -0.0036842374311330506
0.0019035903933803905 -0.006463794906386274 -0.0017499882436661045
0.004315527966074347 -0.004307423361019895 -0.003342716229515601
0.0046460661014381495 -0.0042336655555401505 -0.003208979481836009
0.0043121179798723255 -0.004353024009729454 -0.0031891507462349397
0.0024862535176737918 -0.0059314297533736475 -0.001287514956712072
0.004266884993603914 -0.004361400142179142 -0.0030302347095830487
0.002694916941476713 -0.005420857171781116 -0.001276946123809606
0.00326198386901242 -0.00445924633662619 -0.001647025458783714
0.0015220924266782677 -0.001791575774217408 -0.0021933909202239915
0.004604822569109138 -0.004185191584364532 -0.0033739085224615216
0.004953136240875916 -0.0041792806243365925 -0.003117714238413112
0.0025477317384781243 -0.0057074836404611504 -0.001391961457719016
0.004768379175531723 -0.004266796850017979 -0.0030699873765940855
0.003948842107781583 -0.004322502140635573 -0.002626969024751691
0.0038113280719036355 -0.00416578469843091 -0.0025136500384745114
0.00350077258585279 -0.004325562617381628 -0.0020052164225253595
0.001640876692096821 -0.0016094604426203356 -0.002381985197979393
0.0017563532956188191 -0.0015841031740976618 -0.0024727913206525065
8.501170986968031E-4 -0.0025988659707600033 -0.002273210473734761
0.002011896195260666 -0.001947156372581058 -0.002519564102976717
9.22807244809256E-4 -0.006158128617399859 -0.002206266994569913
0.0012398149811008417 -0.005785299080113176 -0.001746131708561032
0.004878816895432904 -0.004073072265740106 -0.003364389591199827
0.0021352335472102917 -0.006441972577226741 -0.001613837537885181
0.005236670834066148 -0.004024869406756735 -0.0031938297904165695
0.005876969506052387 -0.0039245237786559965 -0.0029929416234654956
0.005255352383656275 -0.0041496370147934185 -0.0030324668206306005
0.005631195592758871 -0.004176905601871332 -0.0028720985256318232
0.005211914459681513 -0.004273708973867355 -0.0030457421261778058
0.004423833779371743 -0.004315164720994742 -0.0029616113700319936
0.0031329473802411607 -0.002833445404849837 -0.004673088245553427
0.00409570178720054 -0.003962384730947862 -0.00396731793622444
0.004374802965386008 -0.003994926065087994 -0.0038573911054386283
0.0015624235617215756 -0.006074011300927012 -0.0016029297844599008
0.004512761277457413 -0.004019411782572916 -0.0037496156064234106
0.004648783910131756 -0.004062631497221042 -0.003561930584314257
0.0053319913368116536 -0.003804902544837167 -0.0034835752932047956
0.005818902504724138 -0.0037591084952503647 -0.0032429946715540475
0.0027827803191519253 -0.005200146616752061 -0.0014896488530749936
0.005428226557376054 -0.004284736262500598 -0.00295177533889884
0.0029431296041119463 -0.004895106660730871 -0.001408269718352611
0.005400370782251413 -0.0043312627957320035 -0.0030465686428730963
0.0016475323896316444 -0.0016615647378421484 -0.0029107056194665327
0.0018716625746719921 -0.0017013027980550019 -0.0026677267808657788
3.571004985814762E-4 -0.003697547735304956 -0.0022896475117359103
0.0035542119173411356 -0.003292198661595036 -0.004465281725324539
7.787412562444972E-5 -0.005288676990723496 -0.0025362827102656162
2.555325531724079E-4 -0.005789720697881141 -0.0024887066842444313
3.212045639919706E-4 -0.006019769646763821 -0.00255701023965167
0.004867324926377604 -0.0037079592488214884 -0.003932196404748676
0.004458656525841711 -0.004005969441631671 -0.0038117769243248153
0.006060502201682811 -0.004037137283014557 -0.00276401621574748
0.006114204301705067 -0.004113549302376806 -0.002705972759027007
0.005906682236426029 -0.004144695428874321 -0.002735621766689765
0.005617370746867536 -0.004311688225694046 -0.0029182808240827674
0.004807112815760355 -0.0042898758335120765 -0.003116696753352413
0.005514702950573634 -0.004376577712108505 -0.0030780074760459043
0.001998128448162602 -0.0019043903888879287 -0.003490474656232711
5.683292509285692E-4 -0.006163268523915521 -0.0024750519552183686
0.005878298243757765 -0.0034352311135470576 -0.003690035518666449
0.006017308693257922 -0.0035628409701929193 -0.0034124028584738664
0.0019407891170485463 -0.006414432026115877 -0.0019700812641178416
0.006565408362651342 -0.003817383882157963 -0.002831980905786757
0.0022161873276978668 -0.0060270272122235485 -0.001913843570175263
0.006354440674317993 -0.004008928631125908 -0.0027137304529289276
0.006424520029292658 -0.004125261024425705 -0.0027851771484132446
0.005916979038014024 -0.004209080644193636 -0.0027734890917243617
0.004769382188760299 -0.004239101044393715 -0.003230138452175913
0.0031271321012238326 -0.0046306877507238916 -0.0018195111804245978
0.0034196797260997273 -0.004347486453520907 -0.0021771653023012873
0.0036817496141988136 -0.004170665127972782 -0.0024362289562873517
0.005721840949015889 -0.004399793174478178 -0.003011974639929916
0.0014693258545049105 -0.0018045038120971194 -0.0028556345997286757
0.0017847842524454979 -0.0016867874987022006 -0.003019759385535259
0.0011596354810545083 -0.0021928149902209772 -0.0025143847608075803
0.002446936774076082 -0.0022253076289523803 -0.004868989730879265
-1.263541380439626E-4 -0.003732548895290922 -0.002870812970364011
0.003315162038725615 -0.0026069586091887545 -0.0052128586347057635
-2.807643518949741E-4 -0.0055986345614803725 -0.002896736738362106
2.1593156446114294E-5 -0.005956181273740104 -0.0027640223846655734
0.004328494027041362 -0.003399432987147508 -0.004458185514597326
7.822327892088619E-4 -0.006425548394190438 -0.0025445009267453904
0.0066426660681059195 -0.003928987655890005 -0.0027380426672621383
0.003170608301845574 -0.004546766112311478 -0.002565317686060422
0.005969501953165283 -0.004313459834816351 -0.0028657189963650622
0.005978803865561559 -0.004413494397147254 -0.0029792814664210804
0.005610812008862965 -0.00442297506788365 -0.003173016960697408
0.001572457743301835 -0.0017604931919730114 -0.0032154938964742835
0.003006807732827315 -0.0025411698056106214 -0.004854304697481194
0.0032145558808342545 -0.002532668644869174 -0.0052018233059888015
1.4954281749086454E-4 -0.006199531298586795 -0.0029434893089524752
0.006160196844934223 -0.0032381651620249736 -0.0038100302165597196
0.00637486293311257 -0.0033691141119932887 -0.003488076460820501
0.006627076388567753 -0.0034895509524005535 -0.00322812900925314
0.0016616229831604658 -0.006510105748065422 -0.002111504432201961
0.006804912132740922 -0.003838312960399137 -0.0027598464376607035
0.00251560136040637 -0.005537579461198419 -0.0018455798210723574
0.006342001465474245 -0.0043390747078286135 -0.002933448298874163
0.003988119424246226 -0.004111484152757965 -0.0027533113043253
0.005872788792358237 -0.004474988522766456 -0.003176873282217019
0.005718016108725546 -0.004448331116056559 -0.00333700566721554
0.0017293794569588677 -0.0018310678276294212 -0.0035382755532995724
0.0019651412476728936 -0.001996483204085483 -0.004099579596873924
2.875174752828615E-4 -0.0030705451270399606 -0.0028010993920896564