# vtk DataFile Version 3.0
vtk output
ASCII
DATASET POLYDATA
POINTS 1299 float
-11.350942791443957 26.269591094114414 -9.519117406109329
-11.25330343231424 27.48357108008081 -9.346433654780277
-12.503879782757233 23.257908548791537 -9.506102172047681
-13.788154283547238 24.988322530022135 -9.031970592006456
-12.356984440848802 26.19490953950444 -9.292863060464814
-10.931916154912466 25.150929464204545 -9.69975083816975
-10.689142656564288 26.58371620739508 -9.575657436560535
-10.219072787067365 27.722491259880776 -9.158501540072244
-12.977606295933429 22.54740440710208 -9.38756068078089
-11.419009575573499 24.335133603248444 -9.49540092869972
-10.235155838729996 25.42040049515211 -9.489414558323487
-12.764524263810426 21.359401831607585 -9.181754042696094
-11.918858353973073 22.147940561248742 -9.333521275289073
-12.869336866487847 21.715751084386042 -9.354948509873482
-13.856402612526033 21.932000741804494 -8.748284037818335
-16.15874089929672 26.656733087601165 -8.430368691894904
-14.877071252828914 27.532482790156017 -8.689768173783586
-12.433512142382034 20.758898989496664 -8.535975673246929
-18.507184760285163 27.998522684542785 -7.626864823287524
-16.43395350442939 29.089048044208546 -8.213808874687585
-8.064522837273236 28.882872087120237 -8.564994926204395
-6.338292139670515 30.944901441188126 -7.955939622172577
-13.008221505573072 29.81329095425203 -8.349090837341551
-9.876063250874429 30.351643136211536 -8.373051181547508
-16.51483839427699 34.57696953090172 -6.587888595355279
-11.728138781183311 33.67241581509215 -6.964878072119347
-13.636777371553382 35.754055266681746 -5.8358895020471655
-13.088301341207224 18.13235211301422 -7.239052314086781
-12.843099696236582 18.657538825070038 -7.446961334414384
-13.203595967311266 19.10636124020238 -7.705264310882558
-11.560675663320895 19.61304921936766 -8.004505985419135
-13.114493747380681 19.522335697822847 -7.925082087007087
-6.229102573482014 22.649750700822896 -7.800650432206526
-8.911867941802115 26.14846591306925 -9.079295457037354
-18.86544023111343 31.071220661000016 -7.469948849318507
-20.675946769068396 32.82565372397173 -6.823102067169956
-16.848220619572466 31.778133214867047 -7.640599454225666
-10.453715613283592 32.60796917146178 -7.490945085705268
-19.167278630802915 34.20329581226807 -6.700446894975661
-12.646649871858893 17.651067387492137 -7.243693912596711
-13.510644526981354 17.8823730148812 -7.221644893512896
-8.660927795225565 22.912674522723734 -8.541471156858316
-6.480519839476064 21.457061029616394 -7.511683395540504
-4.375148678637913 23.396335484422725 -6.720873720646732
-5.782353919841562 23.614948213169935 -7.795926030460519
-16.909051124625552 24.282928483722912 -7.679047032633385
-5.547264505200215 25.21035867252941 -7.789198866906406
-5.956536851139818 28.048590300332407 -8.02637630791331
-7.807584120028664 26.405451205220537 -8.728004775154306
-21.04539097510026 30.47224306331496 -6.753701341127394
-4.937572243231019 31.53046505070519 -7.746270906568848
-22.56011154670582 33.317211604688545 -6.060771609383398
-4.553289478300958 32.657337942492084 -7.607335088882441
-25.15407201992271 34.977396760255246 -4.597667837960937
-21.290377996173067 34.77566323241606 -6.224333689902365
-9.951311901443564 36.163860983176775 -5.490302321288708
-22.762968302539996 35.673754292990175 -5.499350927824788
-18.608095050086572 36.40184759535402 -5.811642433781686
-12.738261627758234 17.494644453142552 -7.16422404333208
-9.619063170641562 20.0284444589643 -8.0033428246815
-8.220321652775768 20.028669146876144 -7.709556272339749
-8.784810752175128 20.756658193153726 -8.248864757162917
-6.835794971282608 20.042741221565525 -7.251741697396844
-4.621836945402587 24.752381357632743 -7.341773307254885
-21.1167479933173 26.862142709484488 -6.135101068783243
-23.970973816941978 30.796307907278 -5.298433508489017
-3.8680060591784775 31.37695136101447 -7.11583544117664
-4.157837001953062 32.98523995753162 -7.243505639003138
-4.27049417339236 32.28075071387868 -7.589398334831056
-7.948832587354223 32.6961917737673 -7.391983541830656
-26.17116236773865 36.41352761408184 -4.011242933942716
-23.648238019345406 37.368283964348294 -4.506044261826191
-20.9432229116913 37.3306928067517 -5.10675827556914
-12.615798544161304 17.403774501240406 -6.9817834463187385
-13.580049768713353 17.657827487437505 -6.86568550791017
-7.411165156778521 19.561936705110668 -7.396247456203402
-15.155507643085853 19.61612198572436 -6.763533601275004
-5.05398378577428 21.005120309436343 -6.103175538861017
-19.35593709099794 23.085105594518833 -5.7534191743117615
-24.968480478262574 27.55834222123912 -4.126876739379649
-28.52805413437366 31.625843650760366 -2.9217976559650265
-3.3770140654972334 34.62631418995273 -5.880963886335086
-5.2647223756991135 33.213940424025026 -7.206450453577551
-27.499674281709403 36.00089793142722 -3.295057144003514
-28.355399031760292 38.54471118489816 -1.9830303091712707
-25.87543546826647 37.934495255280176 -3.436427437050045
-12.874752502196241 17.345602265499753 -6.567201511159445
-11.007029458925222 18.01802775082376 -6.686816415834655
-7.3431450056040255 19.35474690732944 -6.7606967878207165
-1.9413830877292353 32.188523120203 -5.736151129791006
-31.86362267124933 33.03222229728195 -1.5361198216199055
-6.2335843307311745 36.03784571989475 -5.46130139163022
-17.71300247228154 38.90273631264863 -4.153232720003498
-12.692117766127566 17.21468229463159 -5.996283930859457
-17.67760902083821 19.546771779239972 -4.734777752219224
-3.2471668387041013 27.305826277567224 -6.438247825467677
-1.8598018961242342 34.12378746294895 -5.613536895897545
-30.96402292201301 35.96402410998221 -1.4065288889183838
-23.508429480289763 40.18986490503127 -2.8240831323936204
-20.74331096535671 39.842089236642174 -3.6223506824812715
-27.02255152559914 41.06920313711609 -1.2028833445778748
-14.14252557560749 17.535572038438254 -5.533214368353963
-5.809330142284252 18.885761872624943 -4.464341739507978
-22.437645050175323 24.490254380789462 -4.427939435018527
-25.553916490460566 24.617776140813323 -2.359060759560096
-27.746834008338393 27.43120387431573 -2.4774454803211436
-0.6956120416838093 29.703440211024926 -4.529125625182783
-1.447462316912183 35.18197474778975 -4.87284756983006
-30.689580571301807 41.099743013217534 0.6354888653496241
-13.052647241829389 40.603517491633156 -2.4668533172955085
-1.2349905574430833 33.90960308995164 -5.263640771849844
-0.29402571073434464 33.61373732547499 -4.127108641378461
-34.0339423531446 33.768030350004075 -0.5405248395559306
-4.391429965503712 37.78677264448741 -4.130894324328309
-20.952858443972023 42.10934239848995 -1.66310438656091
-28.52793749729202 43.251227267204186 0.5697013015961401
-25.76854755966036 44.313692412952726 1.225450717048738
-6.663588437313217 17.39095234584589 -3.5400105769563144
-5.100694189176194 17.080474474226758 -2.4518141855043254
-20.773051393814637 20.97662516265296 -2.917115589698559
-33.79794469961454 30.74205102327118 -0.4022164630349382
-36.65176246969614 33.07109635237595 0.36937374346143104
-34.88323938188465 32.514540101994506 -0.39436945257342704
-2.3085416797729366 37.26824200648646 -4.012661919619019
-6.993311151924442 40.657642667720914 -1.6823260505016262
-29.827751865799844 43.21548205518384 0.958523851188225
-29.09337761048382 44.54973179015901 1.8384833266675447
-12.490837633536614 16.822071304177936 -4.604244424386117
-16.898402808949637 18.63280375465417 -4.085147445612149
-30.40665586931126 28.195979666589267 -1.239539812808538
1.3638122803502377 35.72078813485083 -1.4705009705807095
-0.48924287517234666 36.583175125169255 -3.2747727910164213
-29.70599064595479 44.05577493163969 1.4270241358918792
-30.943408030490254 44.55828977440052 2.8110738931722734
-3.9010845024434606 16.782005835188137 -2.4227998231587176
-2.543452911477077 18.936461404901284 -2.663326050790023
-28.95162106263011 25.606506451304565 -0.7972099982486797
-39.06710105572048 32.06712268595099 1.1300924586122927
-38.83523912972492 33.16969841841094 1.0192049015259141
-3.5741800580768808 39.282867827984504 -2.784526319459816
-31.031087201627344 43.69715135644705 2.2123073770402875
-17.43282938434435 43.02259523561259 -0.7867176859613003
-13.180960373772521 16.369690669181292 -3.5812915197507236
-3.2812104387704792 17.197496211177363 -2.2873854644240152
0.008446210293886246 24.111486839220216 -2.96314468611004
-39.68114624678012 30.909181213403542 1.6315567756144704
-40.681473231794236 33.10324657954094 2.017138330482397
0.13485913737362062 37.70226137046242 -2.04635637908349
-1.377477273498087 38.945992590319676 -2.081791873064434
-38.54415104114348 34.475090090655875 1.2561759220268645
-40.27395826093339 35.74809930298756 2.3687697875899922
-3.3815340109157233 40.61034961798385 -1.1908444673559093
-20.994702316322996 44.957138230752754 1.2418235142566099
-30.960068970386974 44.87644322802518 3.3167818753863405
-29.670425067408768 44.97776745633027 3.073323560022096
-9.176341180775927 16.82593339608932 -3.1842411043165404
-3.5177844110220935 16.73152286227731 -1.8983038663681953
1.221822514720495 31.18148718061255 -2.5605368990366024
-39.56656668895418 29.56683677796868 2.312737838701647
-37.691168797895955 30.693717218948443 1.0123083268154942
-40.295277485399396 31.69003915720281 1.7270807406272273
-42.05041995433698 34.336841436979164 2.8886459652535246
-42.55802107264697 35.88476977457862 3.5072223611855526
-35.803550637688005 37.20131042189656 1.397973735613006
-11.325109868772362 43.896112785697056 0.9913339363787087
-14.65220938649095 44.186986626427235 0.6848293779626594
-12.022603823465378 16.284827561518156 -3.450543019189951
-13.126971109077653 16.205241559646502 -2.949514345814554
-4.370278958387666 16.472970912341314 -0.9628577387065489
-1.7068875618992645 17.549821535925727 -0.966708925115619
0.1082907545984945 19.982591830217483 -1.7032232747152103
1.1925944205259065 21.307932537570796 -1.7678450972076618
-28.012018723330012 22.413921628128417 1.5748981817386887
[...]
POINT_DATA 1299
FIELD PCA 16
mode_1 3 1299 float
9.999247779946155E-4 -0.0035064913328948385 0.0022383305351639884
0.0011046916707629177 -0.0037396978763389963 0.0021416703210074784
7.936119984879086E-4 -0.0029709589532833287 0.0022850560774381745
8.741477967227866E-4 -0.003360782115295142 0.0020092184954488748
9.731173142606658E-4 -0.003514718664865586 0.0021439204150194755
9.363779660078521E-4 -0.0032963223749363133 0.0023298985961152114
0.001051876652827633 -0.0035686934619456744 0.002243116098755304
0.001230296108257399 -0.0038251654570203224 0.0020381920648261495
7.658174638842659E-4 -0.0028509353196823303 0.0022461891422181496
9.057498983235593E-4 -0.003169427834914523 0.0022626119426334156
0.0010376882305111422 -0.0033755255161179716 0.0022301582452322506
7.912709192352022E-4 -0.0026381360242185383 0.0021982979654493
8.287517476382512E-4 -0.002773107013152648 0.0022516053698019823
7.557182811235155E-4 -0.0026918301518236375 0.0022590281958396203
8.274014107501559E-4 -0.0028162009667475757 0.0019594344867970436
8.89195250319178E-4 -0.0038057582294966693 0.0016213977889308667
9.671833700881186E-4 -0.0038726423127584154 0.0017984778537766665
9.292198812907295E-4 -0.0025819068357105035 0.0019488836194635857
9.688908801585895E-4 -0.004211525773602364 0.0011267945940025743
0.0010294839864020194 -0.0042298175410129 0.0015229055557643104
0.0015491495403671199 -0.004168053144092606 0.0017087640720961788
0.0018912911905129238 -0.004699105449656846 0.0013281406634844152
0.001299798380784828 -0.004207508430175835 0.0017266285182788344
0.0015472576530305535 -0.004363239378253665 0.0016802548051955916
0.0016935195848942941 -0.005037614717471455 0.0010457606799941896
0.0018445191891397097 -0.00490113578005798 0.0012424637345415988
0.002045682645894012 -0.005204947188271827 8.890128964948472E-4
0.0010986743593795186 -0.0021216821865016494 0.0015613334797093387
0.0010673209211044799 -0.0022265241954757668 0.0016109189202607023
0.001027654728228303 -0.002315731998702347 0.0016631994172835003
0.0010472208956109578 -0.002369218276626776 0.001819955833125272
9.967942649506303E-4 -0.0023865768254866266 0.001732132065254885
0.0012535271707665087 -0.003116620509846543 0.0016355697466112866
0.0012477367898176463 -0.0035824286971886344 0.002015526026294811
0.0011323551291769589 -0.004692796064168577 0.001100119795481145
0.0012740056906152541 -0.005078508880519877 7.404900550070961E-4
0.0012782346661124576 -0.0046599568872037755 0.0013293304162102946
0.0017799916427594046 -0.004763330322513816 0.0013795617751092945
0.0014842767012686478 -0.005129474488620797 8.926727006423464E-4
0.0011241851569406987 -0.001990390419309431 0.0016242018254214122
0.0011126126317247075 -0.002066188871651861 0.0015592175399946812
0.0011601230005167879 -0.0030273713696196696 0.0019149818567724397
0.001214154365614972 -0.0028658789988986215 0.0016097325542853615
0.0013562932747259318 -0.003439170162042883 0.0011950103751754931
0.0013279172914461637 -0.0033426326611644616 0.0015659748904255535
9.210621396485911E-4 -0.0034857258858835465 0.001276333938258345
0.001457981753649213 -0.0036816880010590402 0.001470238284058756
0.0016621756191740056 -0.004188903792256612 0.0014348695064602466
0.0013887605170885557 -0.003710137297961054 0.0018308644444428234
0.0011476242253583599 -0.004795685420702112 5.937116008088043E-4
0.0020500146178316016 -0.004939044135075589 0.001123809587134312
0.0014176979958578533 -0.005294321204765596 2.7183220880984795E-4
0.002188510534816596 -0.005191298776179007 0.0010003141426586522
0.0018458609667086046 -0.0056673808212114925 -4.5660262939140425E-4
0.0015160423908087825 -0.0053628130340331115 5.372077444713922E-4
0.002285699600701443 -0.0054489586127947085 7.073693243731323E-4
0.0017076291522597116 -0.0055729339116913955 1.5803776033706312E-4
0.0018537475019780134 -0.005363999130112575 7.075161395995206E-4
0.0011406655912360813 -0.001961082831721266 0.001602359993851613
0.0011172389483659782 -0.0024437108462957 0.0018526602927264925
0.0011532689952078535 -0.0024849311079866002 0.0017635699690743368
0.0011303693116408063 -0.002581315009864641 0.0019227326986266215
0.0011814472276645129 -0.0025577495010705655 0.0016039675066255891
0.0014596229283017777 -0.003668575766639213 0.0013207779409912619
0.0011122913976930127 -0.0042981806062500705 2.6624766091172644E-4
0.0014242976147602626 -0.005095235526114348 -2.6690159557389554E-4
0.002104470908057289 -0.005045043762114355 8.751311804101884E-4
0.002252967583328792 -0.005311217595046392 8.574517843625059E-4
0.0021678507811110042 -0.005150052299053371 9.864476734095667E-4
0.001967041853495325 -0.004922640436979367 0.0012236063347713805
0.0020783572202205895 -0.005881297391490165 -6.907327249407805E-4
0.0020530425205571344 -0.00577409158569725 -1.681019881823012E-4
0.001978015527986037 -0.00559399512415195 3.119007320251283E-4
0.0011610674704596586 -0.0019583136450436007 0.001541175585389509
0.0011515373291888886 -0.002053759481215791 0.0014317590925563477
0.0011636081462852597 -0.0024186254330086487 0.0016858920488166135
0.0010795311615202359 -0.0025750760111093885 0.0011686654239420663
0.0012302124995917547 -0.0029316211115546892 0.001134057173331745
0.0011071455659898157 -0.003570915573267757 3.148301823560076E-4
0.0014550195065473651 -0.004790558929213509 -9.283275310391019E-4
0.002016635300809904 -0.005559283547225742 -0.0015662463532807756
0.002485271001322285 -0.005770061877537557 3.747343360223078E-4
0.002206698846876461 -0.005247604227821948 9.416320259775417E-4
0.002230362675078074 -0.005904873196234761 -0.0010599074415623554
0.002718805366725506 -0.006079193811899373 -0.0012877191785500835
0.002326534100509381 -0.005943476542464924 -6.999000950454722E-4
0.0011900069158488646 -0.001999697936216208 0.0013677372579386244
0.0011520501933377453 -0.0021214697685964855 0.0014396508458399977
0.0011692677022287288 -0.0024372251437431184 0.0014597322269346734
0.0022764515236982064 -0.005476142127419437 3.1473360455442576E-4
0.0025174771052535734 -0.005932052242087055 -0.0022595275449757736
0.002480747667385979 -0.005732152989139288 4.728064520854724E-4
0.0023689489338288906 -0.005639332213328403 2.982737321166194E-4
0.001226553536378399 -0.0020287338582475516 0.0011627403477088342
0.001247113661013717 -0.002878400405760945 1.9004827820746342E-4
0.0017109288069343325 -0.004336261451084857 8.521717983461367E-4
0.0025086727586983203 -0.00587268883122511 1.7493062896971025E-4
0.002727495192314911 -0.0060465117799533685 -0.0018944354845258874
0.002622520690621845 -0.005927962034121448 -4.5300938601852496E-4
0.002477419455505816 -0.0057975780803600245 -1.1706816428147089E-5
0.0030389800945704276 -0.006113567951799324 -0.0011553544842721115
0.0012413061215489705 -0.002192736101974514 8.898347385254174E-4
0.0011460943267722367 -0.0025305575142112605 6.868731188332031E-4
0.0012742386723769118 -0.00412572286536216 -5.441258044025118E-4
0.001603509763778859 -0.004489782493317692 -0.0016611660447600808
0.0017590286209377432 -0.005055765601093212 -0.0018683669095041996
0.0019904297204862108 -0.0051565039364636365 4.307848682768913E-5
0.002627163501177971 -0.00615935150460875 -8.425161103765918E-5
0.003462730061488787 -0.006208287983549216 -0.001849073782913113
0.0028055196173924647 -0.005994194524493574 -9.197624713156283E-5
0.0024997502624585764 -0.005923977874291827 4.181980121141187E-5
0.002438213961111469 -0.0060220870917104445 -2.82874800563259E-4
0.002881435218273155 -0.006104563837520913 -0.0026527549104680913
0.0027920831997373437 -0.0062903590554157915 -7.756721250085128E-5
0.0029742672551685157 -0.005971047344119156 -4.7579105316161285E-4
0.003586556779163684 -0.0062195892623867965 -0.0015568772950381544
0.0036303186574843326 -0.006161361672398896 -0.0014071643440580488
0.0011131248634233771 -0.002199995219319886 4.644164416240672E-4
9.81730306139469E-4 -0.0021607263935572306 1.684171557306296E-4
0.0014325198702019094 -0.0034797485748110533 -7.947966610322906E-4
0.002674844107835397 -0.005843065267638597 -0.0029256818585260153
0.003194240661927153 -0.006191312872146706 -0.003152847228220951
0.0028679041886049573 -0.006092178513250977 -0.0029266246356162437
0.0028173133816108567 -0.006473300047916981 -2.845257379328766E-4
0.002972537208176954 -0.006557995797142897 -5.447438064450712E-4
0.003691932557740984 -0.0062535109115278925 -0.0017374486739478259
0.0038978084183764828 -0.006233327393287103 -0.0017488154207971993
0.001297101467307948 -0.0020714977304984402 6.792367435712661E-4
0.001315657409673641 -0.0027002754499008395 8.502388079794744E-5
0.002127358693020027 -0.005360559048383138 -0.0025242272447407853
0.002551346783685362 -0.0067414997829931735 -0.0011092892044937007
0.0027591946101131136 -0.0066170300878871345 -5.986769891905113E-4
0.003831565274442106 -0.006256791103850999 -0.0017590216088165093
0.00407761807764978 -0.006255461466341202 -0.002023643836088452
8.998709973176347E-4 -0.0020733097792537836 1.7018993384612896E-4
9.80914299934289E-4 -0.002684366552832945 9.987595392560833E-5
0.0019697534821490155 -0.004945367074987201 -0.0025871327894143132
0.0034759592259804846 -0.006234131777173671 -0.0035898855580268133
0.0035146558454839053 -0.006291848180780054 -0.003411933765718978
0.002976768135337167 -0.006718235786826097 -5.283587098086523E-4
0.003921959995223693 -0.006257652637441559 -0.0019830278525641665
0.0031354239428994612 -0.006085812652806608 -5.332796869596691E-4
0.0013959583318129865 -0.002088284056392934 2.9444016241124193E-4
8.798715029129917E-4 -0.0022029723248812583 1.0184170846151736E-4
0.0013210353719965422 -0.0040825372875856625 -1.2384823390175194E-4
0.0035443328063080527 -0.0061429273167112435 -0.0038278054280404187
0.003877473332219001 -0.006257053272560887 -0.0035844218271604816
0.002846674776463869 -0.006965823729689641 -9.809136383821656E-4
0.0029650737625362663 -0.006985149311795872 -8.791122800592938E-4
0.0036245631667356564 -0.006306569700838983 -0.003238200454848565
0.004068730379910607 -0.0063247321959290885 -0.0032537796117065106
0.003061397612084149 -0.007034327536355148 -9.515313580650248E-4
0.0035452633830672206 -0.00618606003925216 -0.001132007015518295
0.0041614191999400805 -0.006242753856940113 -0.002081982778243255
0.004080396916831823 -0.006219477102258428 -0.001955428920887138
0.0011902932833087756 -0.0021045488236831633 3.44593735155991E-4
8.3935113680193E-4 -0.002081284933373078 2.539600406087329E-5
0.0020883555395010615 -0.005758092013526837 -6.409614988551316E-4
0.003566388580849887 -0.005954696464877483 -0.004010217861831457
0.003231125149759494 -0.006050199565937057 -0.003605796389167992
0.0036797752120776685 -0.006215696887656408 -0.0037726654943084376
0.004259392787567557 -0.006260054680379253 -0.0035066669631834565
0.00450345118010436 -0.0062759338367843155 -0.003361549512893485
0.0035932510700697378 -0.006252972367532229 -0.0027292726596185877
0.003285173262155253 -0.006606848350155981 -9.986565701292397E-4
0.003325877785464166 -0.006351284542832849 -8.534170052815886E-4
0.0013561564392655428 -0.0020380547320263923 3.216664272579417E-4
0.0014218990719671641 -0.0021034844921490655 9.074434766779513E-5
8.304857255136785E-4 -0.0020444589037571133 -2.0681348326523268E-4
7.081887107604662E-4 -0.002369550002919516 -2.9214674832285525E-4
8.548574036702863E-4 -0.003091916454953832 -2.891788695181988E-4
9.237803010324851E-4 -0.0035092350768979735 -3.772271392031688E-4
0.0021381819183602354 -0.004473437365519248 -0.0031514607306327613
0.003910425097560949 -0.005897860724211915 -0.004165151175303709
0.004639931744561119 -0.00603911991710391 -0.003774385478625617
0.004318456123105033 -0.00634033862803616 -0.0032351319619387912
0.0044114341578188054 -0.006311718530235111 -0.0030890716601211614
0.004097851858022526 -0.006210802211484932 -0.001984543274879809
0.003978888278626968 -0.006200261034160195 -0.001814964448804702
0.001369283993090106 -0.002086830953502386 -3.1995456079763245E-5
0.0014278264619680676 -0.0023389713317917777 -8.395731646176345E-5
7.527976663476427E-4 -0.0032645190918412577 -5.120773640728903E-4
7.917953343677429E-4 -0.003709831610451714 -7.359311027654477E-4
0.0010117282007208674 -0.004266482191505604 -7.700669655425512E-4
0.00256265779041169 -0.005237614882766591 -0.0035252550331270126
0.0031731993540404 -0.005702074016345118 -0.0038823469656170412
0.0013509938521249825 -0.005398517210396185 -0.0013260310385392318
0.0028798820027555604 -0.007238090867651254 -0.001334771400548852
0.0030006799694620987 -0.007393825037619376 -0.0015227782914764988
0.004824917883545813 -0.00627403921265015 -0.0032338255287292224
0.0035988655353831975 -0.006372984524757799 -0.001308051820277657
0.0038372272971178498 -0.006224052391827697 -0.0015849800095318353
0.001448024999714904 -0.0021942963805409014 -2.3414725266883494E-4
7.525458421953691E-4 -0.0020797915391062164 -2.003767080500743E-4
0.001936564822952312 -0.0036885800753893873 -0.002564466767387782
0.0011282185060686484 -0.004614688246792084 -8.927052341370957E-4
0.0038200120503764042 -0.005681640627659424 -0.0043011264947856
0.003926843373342871 -0.0060723944855304805 -0.003944398090295932
0.0026687172498140576 -0.007361402999465185 -0.0017683817479440269
0.005063056571806071 -0.0061487849363178505 -0.0034176939858433083
0.0055480669024336625 -0.00611729791419822 -0.0032491015178268607
0.0051187213514944764 -0.006226713670066414 -0.003238731383430083
0.0030920232032932383 -0.0072182383828411885 -0.001351768803235419
0.005055998309175028 -0.006258819337469617 -0.0030928965314462897
0.003279868049978488 -0.006974105485965332 -0.001395311141983055
0.0038987934012139425 -0.006339225585402324 -0.0018080475323680202
0.001257771409910545 -0.002130659613191107 -3.7975435713575114E-4
0.005445642908852366 -0.006038646760080894 -0.003426349512978252
0.005962207282623374 -0.006086256948670734 -0.003153867857691324
0.0031672224595213202 -0.007193707182731302 -0.0015451482753983347
0.005706550045565774 -0.006214574780780801 -0.003127015348151545
0.004577611857519419 -0.006242276434613242 -0.0027498510783229087
0.004526737844478789 -0.006230628235780844 -0.0028710171633990257
0.004152620562316423 -0.006250551782754442 -0.0021741381093107787
0.0014140197167908674 -0.002232715750435759 -5.75572853137167E-4
0.0015055442365949092 -0.002403575228857515 -7.289808080472933E-4
6.585074149566241E-4 -0.002115209184086533 -5.841447648367484E-4
0.0015626246025393395 -0.002977738388410828 -0.0010718135416101404
0.001738822934456788 -0.006302999993887276 -0.0017245311293964845
0.001835652471293824 -0.0058762352634842115 -0.0011742264233136443
0.005786029000115473 -0.005917344929893307 -0.0034135503168795257
0.0028828439798297004 -0.007498633624202726 -0.001711113175502276
0.006271761000437891 -0.0058728769242040926 -0.0032406399997935496
0.00705399046878256 -0.005733190594403057 -0.003078096345841593
0.006334117195878348 -0.006062754486138963 -0.0030907170661688284
0.006794584666276552 -0.006100534013989308 -0.002972768626217419
0.00623069451408369 -0.006267800054713186 -0.0031417349977309506
0.005235392820418899 -0.006270156670552361 -0.0030408290636683567
0.0027943627221212824 -0.004901323848077237 -0.004591477400398271
0.004443997459067397 -0.005786421129891482 -0.004174737170644073
0.004889643650473721 -0.0058074066558593705 -0.00402786778989015
0.0021937558668867862 -0.006408849486642546 -0.001234942471954376
0.005132435005513414 -0.0058325246451067445 -0.003885237796348865
0.0053996841004632975 -0.005887227809342343 -0.0036533743293171335
0.0062651249393205636 -0.005594058852474537 -0.0035543071268835445
0.006923015122724556 -0.005518157216004398 -0.0033119578695926266
0.003438774888799041 -0.006966966645606486 -0.0017534122042923166
0.0065310193667612515 -0.006279688247990539 -0.003057803246350109
0.003560356831584731 -0.006677603418263364 -0.0015926793167635332
0.006436663687893353 -0.006358275826741986 -0.0031735386806423047
0.0014914938336323673 -0.0024726302967910713 -0.0011785742511838098
0.0015746382036146002 -0.0026786353477214844 -0.001053287976426149
4.856709418439075E-4 -0.0028927751196300366 -8.035742289434194E-4
0.0034545830774237855 -0.005278113368973827 -0.00455318078850729
8.050158239107738E-4 -0.0046682664416128165 -0.0014296691301319256
0.0011148640560837233 -0.0053937549276262455 -0.001607338810126312
0.0012432466976181114 -0.005789017265003693 -0.0018060316620249252
0.00549129272755701 -0.005532302942374373 -0.004062681665481607
0.005029286999845783 -0.005816019281883456 -0.0039649605218268205
0.007300278719899646 -0.005870952036589454 -0.0028850402050831243
0.007343871000292409 -0.0059638334320628855 -0.0028498095661348673
0.0071324847807982044 -0.006029182984742697 -0.00285846238272078
0.00672101379331814 -0.0062986292725465305 -0.0030575690476903014
0.005622730925421047 -0.006300640226713462 -0.003234914371499875
0.006517660678531118 -0.0064139700327771765 -0.003239323676570496
0.0017647234084051469 -0.003106846342886635 -0.0020616651309639466
0.0014746602127530563 -0.006148903260353704 -0.0018831792988932693
0.0068268690878679015 -0.005151928835357441 -0.0037757086546818556
0.00709268058155935 -0.005270645686679165 -0.003488858766550502
0.0027323570719537085 -0.007637581630427052 -0.0021687267534330375
0.00782264704550885 -0.005537660328165088 -0.0029746684262824193
0.0029573475477302218 -0.007588936470766428 -0.0022456624152445144
0.007599904960771095 -0.005800768572558673 -0.0028672869045328767
0.007569888853108101 -0.005937048184272735 -0.0029732356863157905
0.007096934955151464 -0.0061149978044712375 -0.0029170642036455744
0.005447432395245104 -0.006274449136059668 -0.0033925621363295033
0.0038425998854368483 -0.00662228063803205 -0.0022098430716072804
0.004174384427327953 -0.006446433966017785 -0.0026656355839212746
0.004435201721455136 -0.006298562785399507 -0.0029267549780644564
0.006729246364270336 -0.006407315647051875 -0.0032057282904833432
0.0013099632565332568 -0.0023246727319285836 -0.0010831185559124325
0.0015943150143743552 -0.0026764217594012624 -0.001380353678015507
9.380570240641748E-4 -0.002140602796579773 -7.58060661965658E-4
0.0022910473689624596 -0.00377373364824043 -0.0037162019984743836
1.2804826241950346E-4 -0.002768556289651209 -0.0012780386725614677
0.0029625135847336885 -0.004871011576696614 -0.0052067446629231046
6.618633276843453E-4 -0.004923765511600574 -0.0017764545253479505
0.001007288155954963 -0.005560460385777882 -0.0018835398365255392
0.004567067169967179 -0.005358252129944607 -0.004603241383077296
0.0017265105707982742 -0.006743087600299866 -0.002188223149101395
0.007882500784297412 -0.005665622687885824 -0.002910118554560852
0.003996179680623565 -0.006812766419043817 -0.003384973568714824
0.0070509948708140395 -0.006246178642160259 -0.003055639287315454
0.006949869324494457 -0.006375594561496978 -0.0032140831255319095
0.006530289599605804 -0.006468929245150139 -0.003375081422067114
0.0014585303475826204 -0.0025341717633222327 -0.0014949964624430456
0.0026154756144646345 -0.004641096719689034 -0.00459824378941986
0.0028350155319777494 -0.004786399972716223 -0.00512381591767032
0.0011670420037899918 -0.006174751113485947 -0.0023099504513611384
0.0071206995406891535 -0.004924821818081126 -0.003895948059146868
0.007480665734419466 -0.005020548979046106 -0.0035725680154666986
0.007831433847240376 -0.005136278673312805 -0.003335510896526156
0.002487434375400464 -0.007505008775730394 -0.002195336636869213
0.008062366476946511 -0.005532611429187727 -0.002932063838763392
0.0032402567659535714 -0.0073457103810279645 -0.002259451526091726
0.007306922021122783 -0.006214026806117391 -0.0031816453751041204
0.004693038473126373 -0.006204230305246556 -0.003142865543971389
0.006724577983847251 -0.0064882066040436205 -0.0034362236331005416
0.006517103508217282 -0.006500604433264808 -0.003576875023722873
0.0016071462678222356 -0.0028071402273063335 -0.001927448484229797
0.0018341899304803954 -0.0032016127805102376 -0.0026610181727267524
2.8540918613482276E-4 -0.0023231068999672545 -0.001141476316778608
2.028650859292605E-4 -0.002559674104839213 -0.0011297129796278543