# vtk DataFile Version 3.0
vtk output
ASCII
DATASET POLYDATA
POINTS 1299 float
-10.70179942349628 25.913791616338976 -12.425592869143559
-10.618393515972285 27.11477972285497 -12.42062702401329
-11.916886815488294 22.899461331477752 -12.03475543041497
-13.308739602958289 24.545588465289352 -11.890312954793279
-11.776537664097608 25.807867363170004 -12.25575638633236
-10.246207795219853 24.82215911657749 -12.40880590246871
-10.009075770129545 26.23901863607414 -12.478805805410616
-9.563804893136844 27.383137634876984 -12.165131644474974
-12.427901805358914 22.174483858517362 -11.828283529951541
-10.775221422198117 24.005548384059185 -12.105115996019824
-9.537647790606977 25.115769202516432 -12.1665595131978
-12.223382726147198 21.00824470837011 -11.39381473291158
-11.316978718365474 21.83122624431342 -11.623512862728923
-12.317954811512005 21.35836799766237 -11.648930642788542
-13.412037392406356 21.500941384148984 -11.086416503066255
-15.85197186334419 26.0886968957468 -11.6739519587012
-14.478270345912932 27.030593741903388 -12.022119048346617
-11.932482795876986 20.414178971213556 -10.57058405425731
-18.37882863941008 27.314719804077903 -11.10377716275418
-16.145131806323814 28.523162687847606 -11.847306273518285
-7.397842255231171 28.595694034813032 -11.526948918293577
-5.702874900939064 30.669648125722325 -11.047191420175093
-12.527960183124918 29.39483358955733 -11.83967516146355
-9.285655791719648 30.004326858544488 -11.703221672306837
-16.27502909542005 34.11391867190068 -10.830919635586525
-11.27292921954041 33.322818190798465 -10.828435980062014
-13.293323483055692 35.41709629206483 -9.982961965550817
-12.74822033479095 17.781774850549628 -8.86431061325372
-12.463233345780125 18.30931966678153 -9.134989430532368
-12.821512811114998 18.728086554214055 -9.473471738768247
-11.054722062674605 19.339574058722015 -9.78677695688699
-12.706993865193313 19.14410887558958 -9.761532285789732
-5.4486847822230375 22.62408123420506 -9.732875386531939
-8.203568346524394 25.880265638059207 -11.724615438622473
-18.741598595077573 30.42391049307613 -11.458298621457205
-20.675741297576966 32.134655069641816 -11.055513497680995
-16.595757678044066 31.23386883679773 -11.64411038108916
-9.936466173556202 32.26352654741376 -11.148143741665473
-19.071008559306577 33.62038656395193 -11.058366671911205
-12.287173103827342 17.350098230219597 -8.79347328077355
-13.2063848809398 17.51111786977351 -8.829002164011134
-7.957985251060759 22.739532397530706 -10.662922036142021
-5.712969736172848 21.461069966252097 -9.299470939674634
-3.6237757965380175 23.45300879872219 -8.732937741815944
-5.00488152760406 23.57613926047457 -9.831608215297335
-16.710034301666212 23.645501325841334 -10.45374001619133
-4.802324289966475 25.127347268696393 -10.033995526343345
-5.268856737677335 27.85319840937149 -10.692888299972354
-7.095794600452294 26.17283218300128 -11.301887552196828
-21.095112894290487 29.701650108633114 -10.580152735086184
-4.310436444527339 31.267021411788743 -10.798303791085404
-22.70546284451623 32.56279903905504 -10.225298641804525
-3.9506300539985992 32.374149179802984 -10.777062344727698
-25.506851884300186 34.20543609423604 -8.632991861383505
-21.334804632243017 34.12173174141635 -10.65064000234373
-9.506036380340216 35.92161690563398 -9.454717834146091
-22.919009622127923 35.004619502639265 -9.89952373107451
-18.4999828868295 35.91372606354032 -10.315186961573092
-12.395558440230944 17.184784547963826 -8.691591067580985
-8.985497757746947 19.87274282955019 -9.730936183428296
-7.51262425344998 19.96918482875917 -9.361512282960637
-8.076611119184195 20.643827516634556 -10.032287758476118
-6.0777114436317445 20.0754938891022 -8.851180604221456
-3.8586922482177104 24.738932328266625 -9.483661401695926
-21.242959448025367 25.976898215508147 -9.244977156162834
-24.272154299229708 29.882455697625282 -8.882245744695243
-3.255211022809937 31.189091176647313 -10.08952992247659
-3.571957445037429 32.73278573092013 -10.433623455477676
-3.6606403736326563 32.013340382595636 -10.688874101844489
-7.379365513226058 32.402930208749176 -10.847276778434518
-26.59211039058645 35.69665676565795 -8.08279701245395
-23.87877754292501 36.77239350845497 -8.900816912941318
-20.987809263618665 36.8100753107045 -9.648279969157029
-12.281580574447826 17.086557339741148 -8.481980948161873
-13.313837095414456 17.25200517013757 -8.423138312262944
-6.661734155114855 19.576712421359876 -8.939456487465238
-14.957621191719324 19.04609518301089 -8.618559901759102
-4.3365992571833765 21.10037107571806 -7.8623520180647875
-19.437287271752414 22.201361722385723 -8.168807690685766
-25.434503482527372 26.41464581205833 -7.00560991804547
-29.223788744979185 30.5295182096104 -6.0258282755173695
-2.8574475311176784 34.47500653629373 -9.246878741934184
-4.685214342146475 32.950722524401144 -10.511643225643349
-28.042167126059216 35.2358005672134 -7.091923549328425
-28.963407228083437 37.98171763988928 -5.778127685314524
-26.278908051653676 37.340481418141316 -7.590522883753487
-12.591199244217734 16.96801676642664 -8.043546558329355
-10.576732651767 17.773784448085447 -8.209950574156666
-6.657374194870902 19.358353781212873 -8.319402337347093
-1.3907762936563057 32.1290758622976 -8.741254465908682
-32.81850834991051 31.924358713465036 -4.376352576029057
-5.735289678665244 35.85656051248354 -9.168024364096468
-17.601484934491257 38.564961052137654 -8.677983698575114
-12.44212979718361 16.797514029926287 -7.423606978688735
-17.768160938111848 18.65708631373239 -6.441941077494165
-2.573867737108925 27.296359752654954 -8.91940117413063
-1.3554930180673255 34.0258842147387 -8.834873451748434
-31.808668511006736 35.15226267656143 -4.618055408033935
-23.757030173842384 39.80788012476448 -7.234627953675717
-20.805658872162404 39.47123444912897 -8.212210072325302
-27.53546189794765 40.74038558004073 -5.2270656352318365
-14.013301712428634 16.960854487203424 -7.00403662971816
-5.226790651259453 18.94122842701597 -6.061716003793475
-22.768839112214803 23.377274318414226 -6.92319952883824
-26.182815572475924 23.215555009215326 -4.532507812219957
-28.474739126411894 26.063821280028296 -5.00850699024728
-0.13462954761003515 29.81897252184585 -7.283386745854361
-0.9754570418415469 35.14055478259899 -8.218168773081144
-31.496291987398326 40.787930315500276 -2.820824270215312
-12.776266829335457 40.476907819220585 -6.868330206362807
-0.7380945418505542 33.85966772035779 -8.4371782230837
0.18974024222851799 33.696612038874804 -7.274631843754474
-35.16312911766892 32.67730150118252 -3.1457449120720002
-3.9356630810254005 37.717082074116334 -7.922637582173368
-21.066209517149066 41.905355918440705 -6.173702030073226
-29.167161258921947 43.13468925014144 -3.266139142619742
-26.234074169043858 44.29253884103068 -2.8271163881077825
-6.151287316215077 17.375028726020066 -4.959300440873874
-4.521269034842391 17.203655111373795 -3.898044194131599
-21.124363000698743 19.787500487372274 -4.653494812768543
-34.97688017617712 29.353840954011616 -2.6815126634224593
-38.017995130323314 31.85642686867577 -1.8229400991828808
-36.10375207863572 31.270561325390585 -2.778474461226818
-1.86415267657448 37.25790609031272 -7.65415417571753
-6.579821800108183 40.71010842887126 -5.815868836645329
-30.562440156553492 43.10816020351922 -2.7080101177364244
-29.786774480149504 44.57666717232757 -1.8913372030277584
-12.33607189093349 16.30430834804548 -5.92583661928152
-17.00613410050291 17.734822449999093 -5.614529511196583
-31.356857929035385 26.715680856541965 -3.5625136381127502
1.7918860430892902 36.04915528519122 -4.852015091926171
-0.05781358277667546 36.69226207669558 -6.770692502816647
-30.43494069191169 44.036051111672634 -2.2595219245391527
-31.77673550387424 44.61391818688836 -0.6376448732287274
-3.2193340386595724 17.05846961722913 -3.8883206567593995
-1.8907331498097544 19.236832106160588 -4.414529080034785
-29.860081069620147 23.993107099855568 -2.7868068859219215
-40.66364216359087 30.69284937590285 -0.6737005961737547
-40.38198496000957 31.937059953210042 -0.9187560224991067
-3.14994636656623 39.329662618164974 -6.701973673206312
-31.86532029899478 43.661994670139585 -1.2326904944819752
-17.36772102064067 42.93301647976126 -5.336841816110469
-13.16854211744734 15.688814941656892 -4.7966948329991475
-2.5970353541026276 17.508654484154498 -3.8367446093249673
0.5956770215370178 24.42708683773251 -5.28694004737486
-41.36957577128927 29.385350752672295 0.03796779399137267
-42.39279149317981 31.864909742195906 0.3442435518817199
0.5449190474010286 37.92865438660082 -5.654151656979987
-0.9609156120738008 39.11652443254433 -5.8674626816854625
-40.044932123303994 33.410584386921975 -0.7993537421171334
-41.895220396157214 34.85643774291291 0.47790572292087413
-2.958458125240152 40.7927648536242 -5.205713243266683
-21.158078206059603 44.97963025090596 -3.1420961101890863
-31.802069916283614 44.96764956221513 -0.09639588631748662
-30.422781425281652 45.06212494386533 -0.4900260582323549
-8.863982687054264 16.542017214289853 -4.500147685578304
-2.8448799822190507 17.029512847593303 -3.3994254097567316
1.708675840202305 31.467841510416427 -5.493623250824766
-41.29578118372222 27.894895819779112 0.9047255305907479
-39.21269563115421 29.182813410746178 -0.7879509959069368
-42.01229574025823 30.25874074935017 0.12278721294926391
-43.84591167077368 33.276201433023765 1.3132159019158292
-44.35054065090873 35.0368061528498 1.9125874398828093
-37.04899807254913 36.476312252275775 -1.1374979604940656
-11.019741791735276 44.02326875285287 -3.4075419493807995
-14.4697956751061 44.23328791425081 -3.8238879943913466
-11.935350398468934 15.708304900807114 -4.665474059271507
-13.160447792044142 15.468646970719837 -4.117193738037564
-3.793169209997924 16.648704960699188 -2.4028148456344423
-1.0495425635763067 17.95234931450657 -2.71422927627273
0.7589732856671068 20.434670479837386 -3.7529626324067586
1.81809207556674 21.77842980262439 -3.9895640678422826
-28.99328818671222 20.552438835076373 0.3224507630882329
[...]
POINT_DATA 1299
FIELD PCA 16
mode_1 3 1299 float
0.0017625930323458148 -0.003283744521864161 0.0010874257482152024
0.0018222736386918055 -0.0034068973257937577 0.001023724737195379
0.001711862776722151 -0.0029629786049820933 0.0010448785342211104
0.0018193118061415753 -0.0030616712309167265 8.176300090143476E-4
0.0018039375823592852 -0.003215708675025241 9.793886889664536E-4
0.0016979243453869772 -0.003218605450038996 0.0011660734231642384
0.0017572659271867534 -0.003372379345364838 0.0011145082099656403
0.00184016748249135 -0.003557513915755363 9.808126865589511E-4
0.0017273858694519314 -0.0028823103359374037 9.757331881435203E-4
0.0017048963901720507 -0.0031314308000563174 0.0010868873163339858
0.001711432757991236 -0.003324067268880696 0.0011188560507131625
0.0017317647239764393 -0.002812762550191784 9.055920116705583E-4
0.001695602560812323 -0.0029253216774222427 0.0010127597658950635
0.0017189819325368013 -0.002821962574218474 9.674391916198172E-4
0.001806184039781522 -0.0028356372579180895 6.756874366030151E-4
0.0019194491761411413 -0.003113479272315914 5.274258179247082E-4
0.0019171605130799106 -0.003213142838145768 6.869912078454077E-4
0.0017815280282968225 -0.002836176435119029 6.680091252099401E-4
0.00202158476390661 -0.0031533096566968054 2.0835516269483028E-4
0.001994953682484721 -0.00326386294606415 5.191534465929622E-4
0.0019148668372993437 -0.003968793548731106 8.074465657653333E-4
0.002043075210733222 -0.004456751238196919 5.805801128823729E-4
0.0020270894030746576 -0.0034881105580844168 6.816509944034389E-4
0.002040399636658601 -0.0038690061342483454 7.034949422725575E-4
0.0023401539978739018 -0.0035392369837107455 2.411572808348017E-4
0.0023377987594856093 -0.0038973621642287132 2.924415788255893E-4
0.0025005355536222205 -0.0038246470372631405 4.339408138054933E-5
0.0019324209252595428 -0.002606152130247506 8.894370220635301E-5
0.0018904356357060607 -0.002664288542646381 1.979555841932213E-4
0.001891852209952108 -0.0026886419523590526 2.8407631002350803E-4
0.0017896041444737134 -0.0027968354532583407 5.196983416082873E-4
0.0018673318822359842 -0.00272286945140369 3.790912794773067E-4
0.0014763430415797064 -0.0035191175246033274 7.921658381467444E-4
0.0017548990646769648 -0.0035674932119652107 0.0010130196691916225
0.0020976924340446023 -0.0032961742963799256 2.947131985107798E-4
0.0021839958266504584 -0.0033373522423204567 1.4175166650209016E-4
0.0021272955395534544 -0.003392790088450304 4.369604035187296E-4
0.00224029887364617 -0.003983485924977858 4.268670365670754E-4
0.0022660433520140795 -0.003416875915495875 2.1998756569567747E-4
0.0019276092896396103 -0.0025673743215925272 1.1502792212388907E-4
0.0019788603763105433 -0.002567197928906532 4.409247826552302E-5
0.0016443148985581752 -0.0033076477472064217 9.003519632519094E-4
0.001460562095946181 -0.003340689495509481 6.952517936935316E-4
0.001379694997049046 -0.003829505791379586 3.9491950902908107E-4
0.0014987876865486 -0.003697229994868312 7.7918780482769E-4
0.0019692351016430214 -0.0029673263681900238 1.5846658948021346E-4
0.0015940508046675768 -0.003932554588782121 7.170607290017E-4
0.0018168321110536032 -0.004210594996708373 6.785459881565717E-4
0.0017661437197289951 -0.003755425128975369 9.189889679190873E-4
0.002141874430589392 -0.003242922846176537 -3.816827214125391E-5
0.002052572387493913 -0.004769403276502817 4.945419494004826E-4
0.002256260160994168 -0.0033345643837080653 -9.998570398320903E-5
0.0021357960265057257 -0.004964706909199003 4.1624271043305894E-4
0.002431070192191087 -0.003358891485344518 -4.4804872419482183E-4
0.0022907008862846348 -0.003393147201092795 7.527378125789386E-5
0.0025638497962489704 -0.00430018423162989 -1.2025785938282422E-4
0.002369115081744082 -0.0033995974980295406 -9.443246291573064E-5
0.002446202405994637 -0.0035113507744934593 7.767150806815358E-5
0.0019467123315946321 -0.0025550648074963186 6.641460767242208E-5
0.001678063987666119 -0.0029328321225394615 6.809384338614374E-4
0.0015719411874391194 -0.0030176267394981097 6.936901133522681E-4
0.001619892744605619 -0.003046538152542301 8.534185282935545E-4
0.0014585037271649301 -0.0031238252912271893 6.188347402282184E-4
0.0014989122248342045 -0.003982339812071155 6.118422087692103E-4
0.0021694121739461456 -0.003095907933509857 -4.824313445975117E-4
0.0023056224632239408 -0.003243176282721016 -5.787929615825186E-4
0.0020074635674240428 -0.004920208079124498 3.0587043518383886E-4
0.002161619466092315 -0.005059636105027276 2.9981894508303E-4
0.002092427431775011 -0.0049744838979903245 4.2045972946928856E-4
0.002225743935474087 -0.004351377644925114 3.921472519685438E-4
0.0024974631007063743 -0.0033849199710990897 -4.8406658200060907E-4
0.0025021151072563384 -0.0034164274859722434 -2.4391492938320475E-4
0.0024943633385277404 -0.0034647020928187102 -7.041612268405367E-5
0.001947170806440156 -0.0025640521674309353 -1.2871834260254275E-5
0.0020041671649345867 -0.00257008695745801 -1.3364107058760533E-4
0.0014978814555895127 -0.003008418573818707 6.626237362918113E-4
0.002021737292797158 -0.002720742450062172 -2.27612101665699E-4
0.0013283130210511274 -0.0034418174025172403 1.5062846564270385E-4
0.002176855094984102 -0.0029318753893722497 -7.444743020055763E-4
0.002423136447548907 -0.0031398171398805607 -0.0013089624484077815
0.002621388008610475 -0.0032543019720506984 -0.001383290442293496
0.0023196619168142397 -0.0053264931968420755 -1.4034897800180692E-4
0.0022178234791385997 -0.0048708574198235615 2.98658514211093E-4
0.0025787913719808046 -0.0033622365333892384 -7.457849750972275E-4
0.0027431625804392496 -0.0033733585762286532 -8.088082960975966E-4
0.002591885700569917 -0.0033963276210109373 -4.884704660395324E-4
0.0019743943978917616 -0.0025817709241766373 -2.284921446901177E-4
0.0017989424099686558 -0.002698326387612212 -1.17937263041566E-5
0.0014914112630763229 -0.0030196661232021684 3.4857350473655753E-4
0.002001439212763621 -0.005320715806250514 -1.5876043034847312E-4
0.002819703052781764 -0.003277685325049351 -0.0016808592924200982
0.0025279768134897716 -0.004895093852625562 -2.1025132319613956E-4
0.0027067386068931935 -0.003642144538297769 -2.666395988220911E-4
0.001970831878026072 -0.002608806971025053 -4.8366634766802615E-4
0.0022427124752684648 -0.0027842689885077543 -0.001217130090643382
0.0015958990334632099 -0.004491024816265165 1.8576757886838024E-4
0.00221205409327586 -0.005576931474219015 -2.3778225925477606E-4
0.0028171764707030198 -0.003330328361461596 -0.00128976327137671
0.002744706114354414 -0.0034333527564925858 -4.5864104585693763E-4
0.0027272330471106118 -0.003509286957998965 -3.182468124533496E-4
0.002862998860592687 -0.0033790800615800284 -7.521578793408196E-4
0.002068640397885084 -0.002636127925111417 -7.786382610370891E-4
0.0013321943275037117 -0.003080748224948102 -6.326619343143552E-4
0.0023495492506274388 -0.003024491919620434 -0.0013312152279141823
0.002636220502057833 -0.0030565550762305946 -0.0022154542379692038
0.0026573316503158747 -0.003143604564827964 -0.0020147992831096606
0.001629348600221882 -0.005158908002467128 -5.461711628142226E-4
0.002309045511732461 -0.00573389263839258 -4.959715014517405E-4
0.0030431834273490685 -0.0033456387998345902 -0.0011326784716422925
0.002968771540132122 -0.004108105419666629 -7.681346841529415E-4
0.0021556204947304177 -0.005658503638401834 -3.516065548430256E-4
0.002042030416794829 -0.005722352573073516 -7.222159070300029E-4
0.0029708263844050917 -0.0032845055247900912 -0.0018743562975163288
0.0026916179127025805 -0.005345861780167313 -6.549765727522463E-4
0.0029648513083281275 -0.003515977754429136 -6.795159927645912E-4
0.0030473147908105136 -0.003347389218863491 -9.491085957892647E-4
0.003161129837332856 -0.003356750075845372 -0.0010806214058199806
0.0013883191241247626 -0.0027773418976479248 -0.0010667256697305058
0.0011810902253990504 -0.0027043694412480874 -0.0013913576829806976
0.002464432833357554 -0.002908595716528701 -0.0019767747700768275
0.0030365986064332245 -0.003200019206569137 -0.002353923608434367
0.0031592167742387094 -0.0032542506158411626 -0.002236394417452421
0.003014735351874092 -0.0032544310051730303 -0.0021219700542135125
0.002583313581775166 -0.005715834393070514 -7.630563744848865E-4
0.0029964563601564014 -0.004972361052091699 -0.0011947130565037407
0.003070859067714457 -0.0033414471290110367 -0.0010023456080360353
0.003182408401075851 -0.0033226927180254277 -0.0010882125583352859
0.0019752925657463326 -0.002641692883679026 -0.0011113135041346607
0.0022473989695796764 -0.0027666525293897296 -0.0014899296367302704
0.0028726637743642413 -0.0031534790417860137 -0.002406585106444808
0.0020958120807829383 -0.006107632469369981 -0.0015916848939887397
0.002405801828691554 -0.005972030756830535 -0.0010246386076892963
0.003122816462282253 -0.0033315668973097974 -0.0010221444080283702
0.0032665118749470785 -0.003313443662644419 -0.0012167373958001928
0.0010234657146849953 -0.0026181477387372636 -0.0013311427212006496
9.274201392336078E-4 -0.0031931109909036754 -0.0012544705644001277
0.0029031116520062896 -0.0030897753979204955 -0.0028074503795809357
0.003362798754778261 -0.0032051878332135034 -0.0025885151998886794
0.003310305334642877 -0.0032572996524717463 -0.002378420413535431
0.002837196203805735 -0.005574229576217726 -0.0010816121001761534
0.0031984243821668863 -0.003326125287649533 -0.0011711073824707129
0.003133487173166798 -0.003721721294643194 -9.662477410142414E-4
0.002070614701766847 -0.002658177212326092 -0.0016678675550292198
9.481139108201361E-4 -0.0027383554670200425 -0.001382167973976665
9.269144749356476E-4 -0.004420854165053999 -0.001128580264246243
0.0034998237937147003 -0.003141729155963786 -0.0028847132515562833
0.0035488113869579676 -0.003248856328537437 -0.0025690215868343596
0.0024862277835375063 -0.00613252252304971 -0.0014196726954264706
0.002714950061424639 -0.005941781645707134 -0.0013597385392132753
0.0033153940778658402 -0.003297151182931005 -0.002215877495735648
0.0035178833593565557 -0.003350363474137311 -0.0022261060319582458
0.0029483660444384976 -0.005620187414317176 -0.0015159957740534778
0.0032633091771750475 -0.0034993408763005626 -0.0012269341997033882
0.0033268826490092146 -0.0033033791830988065 -0.0012950414932267602
0.0033164538773030067 -0.003305071746108024 -0.0012877017919426996
0.0016477704683319765 -0.0026816629485317688 -0.001413711715909932
9.550724791806536E-4 -0.0026122664995176684 -0.0015343915310464561
0.0015853936121763034 -0.005598840861112519 -0.0012379887014239046
0.003653146309611056 -0.0030815686370155937 -0.003227584573051181
0.003344174381760398 -0.0031538410333877176 -0.002774429068507248
0.003514991957149554 -0.0031774661545411046 -0.002769440410019935
0.0037191649086851146 -0.003312000101010043 -0.0025068259138850894
0.003796460940017427 -0.003381581581064949 -0.002367359887444694
0.0032274145303417736 -0.0033290797067230815 -0.0018125161621457228
0.003310435550052499 -0.004357401656077474 -0.0016004236000409016
0.003306557725469397 -0.0039633486259383266 -0.0013822308258760257
0.001961961610479468 -0.0026444187960971196 -0.001629290315643194
0.0020735987600006647 -0.002671805027639858 -0.0019509898116606714
0.001047538405920931 -0.002551498238578729 -0.0019227215965163026
6.929468505695649E-4 -0.0028763998498362144 -0.0019104332691632325
5.577543007256832E-4 -0.0035807601088614464 -0.0016514681417645546
4.6851118669509625E-4 -0.003985781956581828 -0.0016388919552199602
0.0031699569664108 -0.003027562200854928 -0.00380904305344699
0.0039043596470501865 -0.003059223473681366 -0.003410954272962392
0.004135678908824716 -0.003235208679368693 -0.00291277553868146
0.0036191699983439715 -0.003393580588254203 -0.00220134625575914
0.0036497993715197967 -0.0033988876201065544 -0.002078056316859757
0.003366031317651554 -0.0032916815684180018 -0.0014110550096144568
0.0033187067165376424 -0.0032930662032912682 -0.0013697212321334609
0.0019467421679384186 -0.002665048001048352 -0.0020901859874644206
0.002189568220737601 -0.00273120641787805 -0.00201423794629856
3.1443604100807706E-4 -0.0037718979701314766 -0.001930326765443862
1.9815677322746795E-4 -0.004201905641911026 -0.002182500103008969
2.824545073997191E-4 -0.00472644132052424 -0.00203818434516257
0.003312061060424302 -0.003066046544970068 -0.003484758357404819
0.0035403514823165562 -0.0030727004091594227 -0.00336730618775231
4.551211916203779E-4 -0.0056179761856264745 -0.0024111862083188683
0.0025570518572391116 -0.006170607596486294 -0.0018027179667156486
0.0028344838942772756 -0.005900279602908224 -0.0020376055835973792
0.003938515393683237 -0.003457512726793474 -0.0022490708641783354
0.003400463201026078 -0.003697965054272208 -0.0015933186073079587
0.0033426814607655855 -0.003375733453026333 -0.0014196014382038024
0.002101402721091079 -0.002712331326476227 -0.0023543183109493706
8.801710333682336E-4 -0.0025890524133515684 -0.0018660269396163789
0.0029445215952167924 -0.003027960603409752 -0.003920814586777919
3.3568939202967507E-4 -0.005021764891603937 -0.0020888013794329195
0.003997512314451546 -0.0030237323180356663 -0.003747170080891429
0.0037664295495397895 -0.003134469959892093 -0.0030505527618547175
0.0022941353371373784 -0.006262615576771684 -0.0022808598762242807
0.004218101039790136 -0.0034260840286685227 -0.0025059630781538813
0.004503385393731225 -0.0035426820350702385 -0.002336043439744086
0.0041462890195233726 -0.0034987426709325803 -0.002281863515585755
0.003057969845403109 -0.005445999874967254 -0.001932456739153121
0.004042550833013789 -0.0034901911085395876 -0.0020958118121360554
0.0033182686742898077 -0.004723553775481584 -0.001987431278650556
0.003451280027489099 -0.003454099001264136 -0.0017451295222885945
0.0017870832773899616 -0.0026528469490277517 -0.0024588832132739547
0.004529980061960322 -0.0034501429252434923 -0.00257393883896244
0.004787996858585302 -0.003648464382998992 -0.0022278872404541544
0.003199437706232148 -0.005093010785649493 -0.002127448864044956
0.0045120398821465735 -0.0036317624520921955 -0.0021047650935332755
0.0036494398238363104 -0.0032916890316686057 -0.0017581531628292576
0.0036056377625406123 -0.0031556529035202366 -0.0020407701104486133
0.003451396383430283 -0.0032821199867994573 -0.0016971192387918435
0.0020229728072719624 -0.002722173866663626 -0.002768460873765364
0.002203914786909349 -0.0027960293220183744 -0.002888152153081467
8.676688077895779E-4 -0.0025897692096807728 -0.002452158039298391
0.002475714364747957 -0.0028872677846644565 -0.0027661814797991535
9.099252095435114E-4 -0.006128294603592879 -0.0025832574093486863
0.0011698755925650694 -0.005755131991130469 -0.0019324061983732757
0.004824110261145563 -0.003459050476689323 -0.0026046564957549955
0.0026140592924352845 -0.0061769120657756095 -0.0022032559654381677
0.005145183509512948 -0.0035824962565831303 -0.002406985941327074
0.005748638066501688 -0.0037296994496688 -0.0022176751383406125
0.005065920920745694 -0.0037475617177482384 -0.002138180423292661
0.0054026417858024905 -0.003940703863124411 -0.0019714200802301075
0.0048814642658060944 -0.0038068558478441877 -0.002034125913152324
0.004113368286103949 -0.0035012269431691644 -0.0019825597541498242
0.003774516644647612 -0.0029798120486623923 -0.004916733516695484
0.00426769559108705 -0.003079940537296313 -0.0034884676821398102
0.0044771282830815985 -0.003131171764176301 -0.0033049284961740202
0.00161271429088624 -0.00602262853814407 -0.0018206368436906833
0.0045721565110253964 -0.0031972894061653018 -0.0031432036671795918
0.004650258260865417 -0.003319447999016589 -0.002874760210423613
0.0053500657564532214 -0.0033432205232709106 -0.0028662023704154934
0.00577970021185005 -0.0034859166068256296 -0.0025785725415161946
0.003436591591464042 -0.004391866568068635 -0.00223562946487806
0.005120155145647295 -0.003945471382112399 -0.001971382410584454
0.00346447318980215 -0.004016881096189176 -0.0019907196400587
0.005010390268438998 -0.003915775038626851 -0.002009208107290495
0.0021580044468995033 -0.00282171811188974 -0.003422548642486408
0.0023721660600203582 -0.0028697906698943332 -0.0030659111220919877
1.6731728275897576E-4 -0.0033974593981505132 -0.0025758846768198554
0.004027780404555801 -0.0029915047373271853 -0.004428955736966553
-1.762921704482912E-4 -0.005144008160318568 -0.0030016511543865107
2.736159612203861E-5 -0.005749139897183203 -0.0029131846959840365
1.6858938536687846E-4 -0.005998206798384484 -0.0030205306943779002
0.005001367566618209 -0.003117992461207207 -0.003472836344098183
0.0045381339611222735 -0.0031562747899624532 -0.003233240176340309
0.005876686999101515 -0.0039581539199709075 -0.0019408484295565399
0.005878880793865621 -0.004044370723292635 -0.001858929645719932
0.005697643397449571 -0.004034422589169812 -0.0018732700281049845
0.00526850820980002 -0.004008183256958842 -0.0019512380343952899
0.004373300410296781 -0.003552671320838962 -0.0020253683227188036
0.005057110151759897 -0.003943524098632065 -0.0020277061503741547
0.002633650467642387 -0.0029964997886659495 -0.003944548998726767
5.069640220586376E-4 -0.006142286250947976 -0.002929408808313153
0.005973566413896752 -0.003132827548801949 -0.003256548236067423
0.006037248384646077 -0.0033121090326422094 -0.002862675901257614
0.0025388074771903807 -0.00604911574707587 -0.0026922078302654483
0.006365448090737296 -0.003817266062176461 -0.0020720374202531523
0.0029713217691388137 -0.005437799462209813 -0.002742180680958317
0.006119254824641637 -0.003986506315846242 -0.0018986130870192054
0.006042293646386122 -0.00401421111818723 -0.0019108015119416756
0.005634539638221026 -0.004050021474161035 -0.0018823164725740708
0.004222730641706654 -0.0033721826391665604 -0.002032048843684859
0.003528696575877884 -0.003677838350705057 -0.0022484349139415038
0.0035714994705226735 -0.0033562926767857974 -0.002285397149259518
0.003606597073188326 -0.0031714735739429103 -0.0022355523896354147
0.005237669670262671 -0.0040095099428938625 -0.002009581926983491
0.0019071676930538612 -0.0027226034287116483 -0.0032996976181555227
0.0023442665042488786 -0.0028957218528818636 -0.003526581429373175
0.0013923282159281863 -0.0025861072946024963 -0.0027680982229567413
0.0032648009278910027 -0.0032003215869540447 -0.005248978983480682
-2.1161492928164184E-4 -0.0032669946046379886 -0.0034985990030831663
0.004029385021625326 -0.0029482317565553426 -0.005602769357120991
-5.217781007461525E-4 -0.005463440111200812 -0.003551495712360638
-1.648359696181189E-4 -0.005910614435004937 -0.0033260423800160494
0.004658761925850057 -0.002998927523603393 -0.004260982236424046
9.052309988580879E-4 -0.006365424922858487 -0.0030935323898274377
0.006360284488209952 -0.0039373086437255265 -0.0019308567432041548
0.0035761920213382083 -0.0035713275755015145 -0.0029624244999046307
0.0055481912623182 -0.004053886845658296 -0.0019350471656848685
0.005427598711622677 -0.004037333098911759 -0.0020098875665281036
0.005050459902163308 -0.003920195941852456 -0.002088161102880913
0.002126467264667348 -0.002831430015952462 -0.003757079483090053
0.003727001192138742 -0.003010573121760715 -0.005237732941399213
0.003952597685836322 -0.0029678030391946226 -0.005628869334296586
1.982284555639251E-4 -0.00610819630283439 -0.003617125715433986
0.006287294153493133 -0.0030204926562580445 -0.003467770734063947
0.0064138330505868766 -0.003202421921520548 -0.0030166616543197385
0.006545390775019 -0.003424975408445049 -0.0026171649588733006
0.0021361480455602704 -0.006254069419077337 -0.0027612392575856086
0.006529239301365172 -0.0038788737368630243 -0.0019722581139782432
0.0032936166019976276 -0.004772412529182564 -0.0026923512640156986
0.005754794866976781 -0.0040323137341804925 -0.0019923513273388815
0.0036792525211963843 -0.0031075356357517453 -0.00211162950085517
0.00521348989274317 -0.00395741648819434 -0.002116313853171319
0.005035495428984377 -0.003852619396274709 -0.002172957170687599
0.002367637758033368 -0.002936536388705893 -0.00407638981420889
0.002699655536283594 -0.0030595272125842135 -0.004596328076449511
3.741238771029493E-4 -0.0027712802872629483 -0.0032581772614572444