# vtk DataFile Version 3.0
vtk output
ASCII
DATASET POLYDATA
POINTS 160 float
-0.012556496280616218 -0.012556496280616218 -0.012556496280616218
0.008314559649383478 0.008314559649383478 0.008314559649383478
-0.0077013585413781204 -0.0077013585413781204 -0.0077013585413781204
0.008926838530034287 0.008926838530034287 0.008926838530034287
0.003877534423168361 0.003877534423168361 0.003877534423168361
0.0011591911858452265 0.0011591911858452265 0.0011591911858452265
-0.00921802098205351 -0.00921802098205351 -0.00921802098205351
-0.02499312273696821 -0.02499312273696821 -0.02499312273696821
1.224883106290875E-4 1.224883106290875E-4 1.224883106290875E-4
-0.005015305964071354 -0.005015305964071354 -0.005015305964071354
0.010012641490150093 0.010012641490150093 0.010012641490150093
-0.002701892900689862 -0.002701892900689862 -0.002701892900689862
0.011417916374452025 0.011417916374452025 0.011417916374452025
0.01619974806388071 0.01619974806388071 0.01619974806388071
0.013996584999895763 0.013996584999895763 0.013996584999895763
0.009145479201450741 0.009145479201450741 0.009145479201450741
-0.009929677373736557 -0.009929677373736557 -0.009929677373736557
0.0035986594013709353 0.0035986594013709353 0.0035986594013709353
-0.004472097705937534 -0.004472097705937534 -0.004472097705937534
0.003433412549286363 0.003433412549286363 0.003433412549286363
-0.00405648142088717 -0.00405648142088717 -0.00405648142088717
0.0036794956545189716 0.0036794956545189716 0.0036794956545189716
-0.009014244518388654 -0.009014244518388654 -0.009014244518388654
-0.006551435645087195 -0.006551435645087195 -0.006551435645087195
0.016351414416390497 0.016351414416390497 0.016351414416390497
-0.002387580649632526 -0.002387580649632526 -0.002387580649632526
-0.0025947135896700873 -0.0025947135896700873 -0.0025947135896700873
0.023255065517936074 0.023255065517936074 0.023255065517936074
-0.010156558502097752 -0.010156558502097752 -0.010156558502097752
0.003210667361495151 0.003210667361495151 0.003210667361495151
-0.007696309130415239 -0.007696309130415239 -0.007696309130415239
0.005863115648561629 0.005863115648561629 0.005863115648561629
-0.013580387631589391 -0.013580387631589391 -0.013580387631589391
0.0049782099572508245 0.0049782099572508245 0.0049782099572508245
-0.00174545817028684 -0.00174545817028684 -0.00174545817028684
-0.004675309132392217 -0.004675309132392217 -0.004675309132392217
-0.002041927428997048 -0.002041927428997048 -0.002041927428997048
-0.013916805600710786 -0.013916805600710786 -0.013916805600710786
0.007844905851264506 0.007844905851264506 0.007844905851264506
0.006875299823288894 0.006875299823288894 0.006875299823288894
-0.00666747375985648 -0.00666747375985648 -0.00666747375985648
0.00589494728848814 0.00589494728848814 0.00589494728848814
-0.010342568817494792 -0.010342568817494792 -0.010342568817494792
4.094161458388923E-4 4.094161458388923E-4 4.094161458388923E-4
-0.008584190205027075 -0.008584190205027075 -0.008584190205027075
-0.019720472654015553 -0.019720472654015553 -0.019720472654015553
-0.02609425283318553 -0.02609425283318553 -0.02609425283318553
-0.0012312421752586067 -0.0012312421752586067 -0.0012312421752586067
-0.020019177314951953 -0.020019177314951953 -0.020019177314951953
0.002920280726359652 0.002920280726359652 0.002920280726359652
-0.0025422267517163674 -0.0025422267517163674 -0.0025422267517163674
0.006574377266657139 0.006574377266657139 0.006574377266657139
0.008599266184311468 0.008599266184311468 0.008599266184311468
-0.01961282444804617 -0.01961282444804617 -0.01961282444804617
-0.002047677548525462 -0.002047677548525462 -0.002047677548525462
-0.005232517640974755 -0.005232517640974755 -0.005232517640974755
-0.004232810960923404 -0.004232810960923404 -0.004232810960923404
-0.022351614258189163 -0.022351614258189163 -0.022351614258189163
-0.005078101779175848 -0.005078101779175848 -0.005078101779175848
0.018612654172024654 0.018612654172024654 0.018612654172024654
0.004382006010471074 0.004382006010471074 0.004382006010471074
0.015779531431200932 0.015779531431200932 0.015779531431200932
0.008075054143782073 0.008075054143782073 0.008075054143782073
0.018774719157683386 0.018774719157683386 0.018774719157683386
-0.02149866490167052 -0.02149866490167052 -0.02149866490167052
-0.002679953291688625 -0.002679953291688625 -0.002679953291688625
-0.003809962522670843 -0.003809962522670843 -0.003809962522670843
0.009969995946815953 0.009969995946815953 0.009969995946815953
0.006753441228381719 0.006753441228381719 0.006753441228381719
-0.029931116196690206 -0.029931116196690206 -0.029931116196690206
-0.009305593791249789 -0.009305593791249789 -0.009305593791249789
-0.0015250164786784093 -0.0015250164786784093 -0.0015250164786784093
0.012229441007403155 0.012229441007403155 0.012229441007403155
-0.025804478926412456 -0.025804478926412456 -0.025804478926412456
-0.0158013049470338 -0.0158013049470338 -0.0158013049470338
0.0214872680384821 0.0214872680384821 0.0214872680384821
-5.238920076863885E-4 -5.238920076863885E-4 -5.238920076863885E-4
3.3328772915973697E-4 3.3328772915973697E-4 3.3328772915973697E-4
0.012391868821298403 0.012391868821298403 0.012391868821298403
-0.018961826660119363 -0.018961826660119363 -0.018961826660119363
-0.02188418727179907 -0.02188418727179907 -0.02188418727179907
-0.00508972266577732 -0.00508972266577732 -0.00508972266577732
-0.004498696325437301 -0.004498696325437301 -0.004498696325437301
-0.0014887165031074456 -0.0014887165031074456 -0.0014887165031074456
0.0010722919099629968 0.0010722919099629968 0.0010722919099629968
-0.022226869998787393 -0.022226869998787393 -0.022226869998787393
0.0019398138931607913 0.0019398138931607913 0.0019398138931607913
-0.013514658792564527 -0.013514658792564527 -0.013514658792564527
0.014678253229095703 0.014678253229095703 0.014678253229095703
-0.020933592241712554 -0.020933592241712554 -0.020933592241712554
-0.0097727458229533 -0.0097727458229533 -0.0097727458229533
-0.012058734144256456 -0.012058734144256456 -0.012058734144256456
-0.0015804517996607704 -0.0015804517996607704 -0.0015804517996607704
-0.0347484438480903 -0.0347484438480903 -0.0347484438480903
0.005818805030271057 0.005818805030271057 0.005818805030271057
0.03443641263741219 0.03443641263741219 0.03443641263741219
-0.019529362060325132 -0.019529362060325132 -0.019529362060325132
0.009748858961389786 0.009748858961389786 0.009748858961389786
0.008762782108919953 0.008762782108919953 0.008762782108919953
-0.005362948404820356 -0.005362948404820356 -0.005362948404820356
0.0025445166578483835 0.0025445166578483835 0.0025445166578483835
-0.02131858213252652 -0.02131858213252652 -0.02131858213252652
-0.008318787782380805 -0.008318787782380805 -0.008318787782380805
-0.003764445942219358 -0.003764445942219358 -0.003764445942219358
0.02039987665738925 0.02039987665738925 0.02039987665738925
-0.006046851530318004 -0.006046851530318004 -0.006046851530318004
-2.501944930764083E-4 -2.501944930764083E-4 -2.501944930764083E-4
-0.013141306166133272 -0.013141306166133272 -0.013141306166133272
0.03019793299318384 0.03019793299318384 0.03019793299318384
0.0051304690017344445 0.0051304690017344445 0.0051304690017344445
-0.021072606377479618 -0.021072606377479618 -0.021072606377479618
0.016856770389109422 0.016856770389109422 0.016856770389109422
-0.01580946133457072 -0.01580946133457072 -0.01580946133457072
0.01349422718971629 0.01349422718971629 0.01349422718971629
-0.002228689510945474 -0.002228689510945474 -0.002228689510945474
-0.002790734362195735 -0.002790734362195735 -0.002790734362195735
0.002583522813660634 0.002583522813660634 0.002583522813660634
0.01852306628261809 0.01852306628261809 0.01852306628261809
0.003661129842104316 0.003661129842104316 0.003661129842104316
0.021997309320945933 0.021997309320945933 0.021997309320945933
-0.013465567441703408 -0.013465567441703408 -0.013465567441703408
0.011753042588247843 0.011753042588247843 0.011753042588247843
0.012158904762512092 0.012158904762512092 0.012158904762512092
-0.008775581830972046 -0.008775581830972046 -0.008775581830972046
0.010339754367293575 0.010339754367293575 0.010339754367293575
0.007789188139961073 0.007789188139961073 0.007789188139961073
0.005246117888835872 0.005246117888835872 0.005246117888835872
0.023285042100539034 0.023285042100539034 0.023285042100539034
-0.013097405770756826 -0.013097405770756826 -0.013097405770756826
0.010554418461754124 0.010554418461754124 0.010554418461754124
-0.0042288007810570615 -0.0042288007810570615 -0.0042288007810570615
-9.149423623356913E-5 -9.149423623356913E-5 -9.149423623356913E-5
-0.008825450208421638 -0.008825450208421638 -0.008825450208421638
0.01144646048477635 0.01144646048477635 0.01144646048477635
-0.002369223524795672 -0.002369223524795672 -0.002369223524795672
-0.01589354023943258 -0.01589354023943258 -0.01589354023943258
0.005762201831240966 0.005762201831240966 0.005762201831240966
-0.01302806186871483 -0.01302806186871483 -0.01302806186871483
0.008261304194101782 0.008261304194101782 0.008261304194101782
-0.009929373156881444 -0.009929373156881444 -0.009929373156881444
-0.01348885330070277 -0.01348885330070277 -0.01348885330070277
-9.54080957996717E-4 -9.54080957996717E-4 -9.54080957996717E-4
0.008755118146311717 0.008755118146311717 0.008755118146311717
-0.0056572586488427175 -0.0056572586488427175 -0.0056572586488427175
-0.013286967193985972 -0.013286967193985972 -0.013286967193985972
0.007206935692301981 0.007206935692301981 0.007206935692301981
-0.0024075143509173086 -0.0024075143509173086 -0.0024075143509173086
0.007158711136674423 0.007158711136674423 0.007158711136674423
0.0015972172427065946 0.0015972172427065946 0.0015972172427065946
0.0018416726328070233 0.0018416726328070233 0.0018416726328070233
-0.008201769091467073 -0.008201769091467073 -0.008201769091467073
-0.026010066768479202 -0.026010066768479202 -0.026010066768479202
0.006835703005421967 0.006835703005421967 0.006835703005421967
0.003419203802371662 0.003419203802371662 0.003419203802371662
0.015496124109319182 0.015496124109319182 0.015496124109319182
-0.00862988902026214 -0.00862988902026214 -0.00862988902026214
2.5598449456428753E-4 2.5598449456428753E-4 2.5598449456428753E-4
0.008220521233587364 0.008220521233587364 0.008220521233587364
-0.017469332302733988 -0.017469332302733988 -0.017469332302733988
-0.024808175626030673 -0.024808175626030673 -0.024808175626030673
POLYGONS 0 0

POINT_DATA 160
FIELD PCA 16
mode_1 1 160 float
0.005312974373430302
-0.2630852636836468
0.09659692221123599
0.030239555179897192
0.017749360512115942
0.043764103179814696
0.08459851021638581
0.018178686508023224
-0.04946593291755267
0.03349742087332177
0.038565507939178886
-0.04628535926635892
-0.05169539656778578
-0.010703111666596684
-0.027151916989110826
0.005640088414602365
-0.04579030127763443
-0.2507856426145856
0.1190865992368445
0.038167904174154464
0.025118033938526317
-0.002546559044399933
-0.07204591627217337
-0.061885243077027724
-0.07740364540799004
-0.012933803893065421
-0.053643816066796836
-0.004032310475343049
0.01388534224346227
0.004060625956011258
0.010834857153658558
0.01709533349737541
-0.042868372288064525
-0.23850376585267036
-0.1846647652136111
-0.016282010785542585
0.04308952216391153
-0.0028865924281667684
0.010489810102280422
0.004867643727934839
0.04363689373064807
-3.716664958393584E-4
0.003534280992966997
0.016234772064486862
0.0427641008791867
-0.0029062211931288624
0.025109735205271436
0.016536355388662886
-0.03297372524827534
-0.2295147442359869
-0.1577273065005597
-0.09516720283934335
0.013368374576237223
0.01049776278383721
0.031159793671492398
-0.02368807527475909
-0.09347160020023601
0.006143624454480986
-0.0024235406433713996
-0.01964308245851395
0.028013888630271714
-0.018864883809383358
0.013590315997072671
-0.00517076755677546
-0.027206477182237312
0.2329023213372194
-0.09794039685413405
-0.10815297372246509
-0.10119097483807037
-0.035652843935417525
0.029000591441161207
-0.03243306643090781
-0.0366752437630353
-0.014398298276044007
0.05879611615108526
0.0012701983031937216
0.0644176251552218
-0.030730836516355026
-0.016268619858159656
0.0016707986015731782
-0.034459253786370915
0.27133110867369836
-0.03680035548598726
-0.06673699187782597
-0.061392713600428424
-0.07462843161688135
0.009592127140320619
0.008075692564526688
0.004866495257017709
0.061845540299653834
0.031599415984790644
-0.03670357654044444
0.01703862564749982
0.02416013655580026
-0.0456751001725728
-0.026805972635915838
-0.036418972101055755
-0.2841455993073832
0.044021107023589696
0.02434490304180617
-0.05373373555200752
-0.06858552208728903
-0.007756271900721829
0.021901773799016214
0.01170546027733021
0.04644494404215816
-0.0361711600864062
0.026214402956532438
-0.049498477115852625
0.008484750134113034
0.020958732069968268
-0.0032839752800361247
-0.019598661035194517
-0.24229875479267926
0.17139104237195932
-0.01319148305081702
0.04538102220811771
0.028208199720148677
-0.030197057223113395
-0.06735049155390746
0.00912932766051023
-0.04417886473923309
0.012848108766471439
-0.008741327912148779
-0.0027963170853281703
-0.025330575863570425
0.0053397316990258185
0.011209267286382975
-0.015128228668361006
-0.2454373340216986
0.16586362420322523
-0.03822639613757471
0.03208818326021696
0.06229324759743037
-5.185684595107804E-4
0.055775063530712286
-0.041181503867187205
0.009941494630347006
-0.01049608569121133
-0.013838962114853061
0.0033956107738804405
-0.018059559888047225
-0.005703179776638221
-0.010339105108433324
0.026290293171133912
-0.2727270587045733
0.1209193659274353
0.018244611050024336
0.0012683024390950405
-0.006753652002397337
0.03904440750519059
0.014193821787751342
0.0019369453525559738
-0.03557594607979946
0.011607663699776226
0.06272904625453393
0.05147854643017194
0.0035651496459207874
-0.005133392641369596
0.011226310511739907
mode_2 1 160 float
-0.2142065219881
-0.07379970787423171
-0.15628640381343423
-0.10346490976494804
0.08321517500619131
0.011383152991665361
0.017767007104842487
-0.051650248287781586
0.0370152181691666
-0.022827573005087358
0.025310302175274187
0.015640795480746445
0.00137448495099033
-0.02045659271040682
0.01567003467993645
-0.0013205958316711668
-0.20219753688992606
-0.06934645711342866
-0.13188421682433746
-0.15360311706954188
-0.025280514693809875
0.04303728910374761
-0.04461858654562045
0.03776458649159811
0.07690160562255634
-0.026309530184646115
-0.009019757001090705
0.012900415425430021
0.005045871112111445
0.0010952070070459486
-0.021854409948731963
0.007140172355501569
-0.1319578628096135
-0.12410960180051141
0.18331196792165155
0.11264619760382717
0.09514450109507369
-0.012032434156731957
-0.04223061800016007
0.0559812088535562
-0.0732733680707221
0.03162437763304634
-0.006775027429310786
-0.00661106520940984
0.006999786860152289
-0.005642540006666519
-0.013633868693454773
-0.0076516090605622585
-0.1475811898906717
-0.14585576859723937
0.17322793952154353
0.09188998387055014
0.07348182125342305
0.040129966271404416
0.03603275524478247
0.08254442724460354
0.015293026708611808
-0.036748256011381805
0.01497007535477084
0.013582434471357088
-0.023302494892455998
-0.00671187926060851
-0.01862945104880186
0.020902884445319514
-0.1857753429269561
0.09600044949747803
0.14483926539762584
-0.03161026507231169
0.14354586971226854
0.021445401747356173
0.03764208681466651
0.06035513973549113
-0.014034360571687549
-0.062264701455050864
-0.0019685060115714813
-0.031572209474611944
-0.016810759618137393
0.02632244324986986
-0.0036513227736180986
0.0456584912484075
-0.21241837017121493
0.039882163326106744
0.1302802779713029
0.020522836559410826
0.09797143616880383
0.07595107225087679
0.06317878203725026
0.07400950192336327
0.09853661120431603
-0.024694542354109412
0.004091782661080245
-0.0010076944568685369
0.01830647343080525
0.00374844030465727
0.016721256316429758
0.009229810744140005
-0.20620736945411844
-0.03068374712580158
-0.13824538437202608
-0.08617006523684984
0.06747829787841374
0.09132257412714331
0.0034716921618316893
0.07761119323635361
0.10206329534437063
-0.007534967355435326
0.010661791096702235
-0.013673076094926698
-0.005337613493037524
-0.01376976563860718
-0.00240638381149252
0.011167292382325278
-0.20646186694219676
-0.08630303364444573
-0.1266336556101642
-0.07815436480550478
-0.09761013587044581
-0.030296326955794314
-0.08659622899165255
0.028909729615818076
-0.08806993347629921
-0.02716006043501172
-0.013957572049175498
0.003850394403491611
-0.005954911422544968
-0.011461140023396342
-0.004924498869216469
-0.012072176065710998
-0.2076039391650789
-0.08658235497031884
-0.13254638742121377
0.09436180014999344
0.07178095042483705
0.022516310324012495
-0.11320002393647487
-0.00402606787608136
0.055551347747634025
-0.033417343131208754
-0.0017544836872471815
-0.0016923343263610703
-0.004343773349580037
-0.007646917579408967
-0.011077477094864785
-0.00407658226379874
-0.2062875946418286
-0.08184235466214516
-0.15068736662628546
0.04623316386317623
-0.10439445189523669
-0.09307330163446617
0.039011667366351956
-0.029840277900500048
0.04754269050472037
0.028374557027061632
0.009895024465324077
0.003623620672435466
-0.009388742843970456
-0.02309931720866741
-0.011966700914839245
-7.592720666023916E-4
mode_3 1 160 float
0.1540278054997164
0.004561738492807372
-0.1776590390539141
-0.09056947296502946
-0.00802345628764433
0.13915312109720054
0.07704606718180007
0.045132802159679346
-0.07496322029948686
0.020064551373056076
-0.017424289857258426
-0.008365214939425367
-0.04516814382971998
-0.018670207113367608
-0.015381128693101369
-0.012402359075372339
0.16083664723519214
-0.02785346526580805
-0.1353300723660261
-0.09986934831959982
0.055787941157046265
0.11522824440633651
-0.08094363833700978
-0.025244789899120556
-0.1348434956079283
-0.033003853175086556
-0.0021771103229729074
0.004898619448738468
0.02491953848066338
0.020413356412053173
-0.007127410997076735
0.03153858509451574
0.18823227580169952
-0.03567959006797293
0.03567161966579596
0.04069631847757801
0.07118707840815107
-0.1614727256030412
-0.12195878371174063
-0.03555530033061806
0.06720109142728659
0.06994368168206762
-0.011950659218337753
-0.029887659970316754
0.030802956809601212
-0.022822486244737813
0.03298184660992251
0.011583137072346993
0.15512574883252714
-0.04541635830102943
-0.007033792938993735
0.09846833370818728
0.09140486478305371
-0.08643985696785852
-0.07895830166636851
0.15219903659912254
-0.061468340819425565
0.021788570038801924
-0.08895449551831744
0.010143163035619488
0.06724340890434409
-0.04272253349902197
0.008764022147074477
-0.005198846211219097
0.1523669112981312
0.0546051578194489
-0.026029427520473027
5.97019466451053E-4
0.15411887182225537
-0.04770635281700914
-0.1012163857017245
0.11513757550593118
-0.03998825945772457
8.226541541966484E-4
-0.006523840554605817
-0.06687761342451651
0.11754625235896964
-0.004489833883793172
-0.04516060545902862
0.04097608792164442
0.15592810476720473
0.03467418716294648
0.018982779508505646
0.016181355389187677
0.1246091653333739
0.07054989820923269
-0.0800645880216723
0.08943609344896526
0.10876285078644461
0.06499400023161422
0.03756609648076632
-0.14078609418830867
0.0209221651254963
-0.01735756316327158
0.018976627072664964
-0.023687476627271862
0.15556966117428928
-0.031304130094177395
-0.045923260116706895
-0.11410934474550889
0.07806176649232995
0.10715430045995922
-0.11810350449439345
0.022669978609214197
0.009686372792391918
0.07960468621110248
-0.12543989430502234
0.054111465591870356
-0.0430377265018854
0.015554784052795728
-0.014732622110667119
0.015049335159094188
0.15844542661466962
-0.032341263015045446
-0.09022120413875197
-0.13837810490215818
-0.10350568254050561
0.02523733038089007
0.028248961488944704
-0.15800088386746328
-0.03858473760673537
-0.06418738021570894
-0.025396841709618093
-0.04035804413652202
0.03001232187688016
-0.025113690213750123
0.0016207717197635656
0.003115200420752262
0.1514459758750904
-0.008135263636716796
-0.0744097194289102
0.16849469276339762
0.08659821889014617
0.10796533441803911
0.007617336642147293
0.14365792767802804
-0.03114985891898606
0.017490964592057377
0.018140683537094974
0.0055912904333572985
0.03319187398228233
-2.1519059798715941E-4
-0.021032441202390083
-0.010786833179405918
0.15920249019969343
0.015581330489480972
-0.10885932161466509
0.052812633585499716
-0.165618096302509
0.04628150502359805
0.12891913718201742
0.06925796629521674
0.017325844084376492
-0.05660488593384005
-0.022297376858097753
0.0660081554082425
0.018512374132850146
-0.008849739712567058
-0.00465675097583777
-0.0049150349535824886
mode_4 1 160 float
-0.037810656070450276
0.0025744767975775774
-0.05449144204994918
0.1103947193766856
-0.13326927848527223
0.011796704005484288
0.18980547070198767
0.020714681862531437
0.13244840151168064
-0.010482123979308134
-0.0272572611992805
0.055476175563165635
0.0018703247410805878
0.08572517840988308
0.009490640322291634
0.015356086763389187
-0.052081714840811116
0.020295375403693604
-0.07610820670764226
0.15610243874543062
0.09801909400551523
-0.0276336008553332
-0.16437438595467146
0.13727614281223074
-0.036811649738152985
0.0338471922077635
0.033161349483710564
-0.021919859638410838
0.030079830740809405
-0.05862817945550478
-0.022272554405149216
-0.041259194100724414
-0.07282358248825749
0.03745190567374126
-0.009930139368844092
-0.18372210279013795
0.07902970075638265
0.03962854677019061
-0.15807985505901925
0.09760468784916686
0.051474202655722695
0.08504901773035684
0.002412683396034759
-0.03176815714241864
-0.06775220175800314
0.03665956131621363
0.00746983258438787
0.00609219397944309
-0.10638790418502017
0.10727739799068946
-0.05111127050649773
-0.14530445058933025
0.10277693926917068
-0.018979896215376293
0.08298164978235532
0.16479534668910273
-0.002148484477105389
0.04975130900480523
-0.0575023495338575
0.04294168897875416
-0.018157618555963526
-0.012241168320197832
-0.0155465875497997
-6.940328289654596E-5
-0.11594020381936408
-0.12067273031481637
-0.07864654652681823
-0.1227304090927532
-0.05162257770125034
-0.1558802208645611
-0.04371998817194172
0.10928147987715886
-0.045159128414768684
0.02903971733538797
-0.03569300626423818
-0.04901581513232787
-0.018930554991378898
0.0024605498988020252
-0.00957810344649026
0.05417095237684771
-0.07575039742261418
-0.06747847628747317
-0.004452391866816003
-0.11028018395583242
-0.04838016111189398
-0.12348983088871474
-0.1832392658683083
0.11360127248947136
0.07829754791263804
0.01511167976405527
-0.03793555559881792
0.013822989398927638
-0.05849891449923399
0.0016092050302384988
0.04495912758684957
-0.007161434333478605
-0.03052829974948326
0.041778270110228416
-0.056501256191016216
0.010282332253751985
-0.11509203460930989
-0.07847770287902557
-0.19366037478338383
0.14081745245446708
-0.07136995795534323
-0.05691599707696001
0.03339823375237374
0.058894155599857015
-0.012455112629873099
0.03706968536287284
-0.04300414815940006
0.032469778306228415
-0.011469585192488026
-0.011332735818809043
-0.10157186000875597
0.12291641456613378
0.12525610714028904
0.10669576410928389
-0.07649547339897227
-0.15315614218376677
-0.08543634547540623
0.04493276402859662
-0.029820505857109145
0.05467072887967118
-0.00478066725162335
0.049490432363324295
-0.04446001795038576
-0.011462583421118137
-0.01547947281586019
-0.011121969792520647
-0.08730210392764275
-0.15345807588507532
-0.10632183050961164
0.09225625577549558
-0.01778350463783875
0.1613247746724198
0.089764644700727
0.0384303485747195
0.026713611977270204
8.11120383061493E-4
-0.01479752267636759
0.10900106893768197
-0.0029723835338525055
0.009691489129591165
-0.02190169005829962
-0.015547171664640817
-0.05858890142097548
0.05689635577498054
0.17908094273192576
0.061289385602733594
0.18768969148267392
0.018572742849619926
-0.021758259821851075
0.08762427454868549
-0.04453748967243988
0.02781207578432037
-0.06811734148040843
0.06975760781810604
-0.027115389865858323
-0.005586239058782128
mode_5 1 160 float
0.07871016079251451
-0.06517002336148163
-0.09760189141196117
-0.025793174333209445
-0.0453293060815197
-0.2343988130337839
0.0015508564339603785
-0.020331792891331343
-0.016677964068813618
0.12029649101517889
0.05586483957789977
0.048301649817699764
0.0023439786403242338
-0.010999637853296112
0.03168038948101547
0.025239453595579837
0.0744216967057676
-0.08208577802523875
-0.13715342952332088
-0.023475620172821166
-0.005739402003475732
-0.22452624401575297
0.01788544038457311
-0.06530921729382332
0.03543168088009926
0.05059748415492453
-0.01672891641809861
-0.06844039557699691
-0.02444631985410954
-0.059545162436721304
-0.009200093883959
-0.015979806830583164
0.0796992612520222
-0.07671889749333759
0.12460023168381988
-0.10964883627045838
0.07189991109190677
0.0499392697219768
0.1847457385613777
-0.008192098110104337
0.11557804888119953
0.019729896572157398
0.008226038049666878
-0.03457835321273661
-0.044233831654663894
0.01534461499157367
-0.022597316745044973
-0.024953156820655697
0.0676476207702492
-0.030148682483051484
0.06444805489640798
-0.058365850776397
0.18027265312762214
0.023720569475202832
0.015928994283251702
-0.13738940796252713
0.07253795460636131
0.1270008566905665
0.005583526023067702
0.09332161545105101
0.060933402090497704
0.02052158232208828
0.0012173366117892335
0.011570011472426495
0.0505635046413085
-0.017250320693242328
0.05316813605781157
-0.1040999550825168
0.09546827928847787
-0.09981700511581137
0.14987111326322156
-0.04409500811258512
0.0011035792910518087
0.14951717791629163
-1.4880253731076564E-4
0.11938295851846467
0.04121482213002184
0.029177256062113018
3.4494160844999013E-4
-0.03128215390117811
0.05738521010002429
-0.0016888447741014905
0.11270678286591572
-0.14782888218489187
0.10918793673490836
-0.0755573619450751
0.07210600744006361
0.08765426263288265
-0.15348545985814468
-0.019096384306236485
-0.03551773760509604
0.008537213644507272
0.008204112385092763
-0.07558529282504206
-0.021102674829667465
-0.018470001777509088
0.07650314215143961
-0.027119854407547987
-0.1357327225425238
-0.14477707423252495
-0.12652937283621565
-0.042433029797441665
0.14489413006868612
0.03687582182247859
-0.06054362977703251
0.003721496159265387
0.004548397925902594
0.010709221213381975
0.08463516897964382
-0.008630312287575536
-0.011144883405026113
-0.052022978715512556
0.08210162690809418
-0.0804614275498903
-0.11971964853328693
-0.08669260094806255
0.14409199288250402
-0.05862184340137754
-0.10705055912669259
0.08840535214963707
0.1293839678996367
0.010495266541772384
-0.018329453042147663
0.021703543895653304
0.05035334560727324
0.018911583568015505
-8.09440781283916E-4
-0.030996635158868992
0.09270176125426481
-0.09023035981884933
-0.15384391988641985
-0.13290919856090813
0.09397257774225601
-0.02828150794946528
-0.044137789636695145
-0.09200366471678634
-0.1221458214500271
0.02553899909400546
0.037543484893967125
0.06467070153014477
-0.011835414440417245
0.016639276506741074
0.008537519024562297
0.011682942453298838
0.0946990271670352
-0.05806769662430325
-0.14585746520600543
-0.14564604341477352
0.07520162034985843
-0.14531069246402162
-0.013982511953392425
-0.035834967413309174
-0.11101898865872006
-0.05346866780482582
-0.007873848848861312
2.447389063832479E-4
-0.004838445840857659
0.007724235729069082
-0.030555167550986986
0.02815099091352223
mode_6 1 160 float
0.01620676334717934
-0.10608485904271453
-0.10545907086507922
0.13692185650631153
-0.005849968767693319
-0.019235530411462087
-0.11168711464129745
0.052829669625075105
-0.045390105896939696
-0.1126168640921327
-0.11917258916797678
0.061175936614137234
0.08090185693310015
-0.016003904781379506
-0.027844053309642854
-0.05148910254618721
0.013924690836382474
-0.11332764091721742
-0.1153885777994234
0.1334202100131041
-0.09737531747280886
0.05688840527352312
0.13637524864511413
0.06405024568254496
-0.018285782312048728
-0.08186187526091512
0.09100542808239351
0.016071858455634806
-0.020369850427738593
0.04402909141195742
0.035044333132330144
-0.03807661515055479
0.046067622345406116
-0.11603640236081686
0.0693609637647406
-0.047948348462806975
-0.23505176873829148
0.058524975831445586
-0.07454257107702733
-0.013658360820439202
-0.02977847919568701
0.06603667555413564
0.04435104517714905
-0.06487670844616658
0.018112531233226613
0.014516949343659229
-0.02737378707478218
-0.016218979917543914
0.07723000382813609
-0.06975639553666521
0.1449020291864629
-0.17736027099256527
-0.13418575358457646
-0.059139008366506256
0.01075362860057709
0.05000147888752979
0.05950637534360446
-0.006822934602814796
-0.05355635405190217
-0.019099457880956915
0.05528443950041277
0.008109032485854501
-0.016065503933130703
0.05139191374080023
0.08369130371321126
0.026858341705975116
0.21830365961513712
-0.0843734787320153
-0.14447799019997884
-0.010625658305201314
-0.062293788567013675
0.037091092879015145
0.021701038166271027
0.023433476946505064
-0.06365299090141456
-0.02634914915385903
0.019298864006807404
-0.022625244303359913
0.05305932001967977
0.03130066345015113
0.05470200124911431
0.037325366114420166
0.21435848241370686
-0.029882776497351337
-0.14713582267422756
0.08210922497314631
-0.06931241795149402
-0.07970514473987454
0.01427506537694909
-0.052998964520486136
-0.03753046419600794
-0.030292459662604368
-0.04849548115066495
-0.031369040154303175
-0.009445132907322594
-0.022785844786710086
0.04193206341052304
-0.03890050101273812
-0.21475632317325172
0.1799648562689161
0.03179495799627705
-0.006443910382237511
-0.02914090417350857
-0.1051891912777697
0.008698705831626135
0.01638497142970876
0.013668823561073946
0.02482429789395463
0.029353661583219826
0.010956001753778088
-0.044462150835346985
-0.03548838025751113
0.04453074870885239
-0.1346020754976088
-0.11552896769380376
0.19390901596875681
-0.07911896061155596
-0.0449041159194646
0.1041374208523841
0.04687780738071704
0.03862119487486771
-0.03362198998346043
0.018820253265143756
-0.06113253825231741
0.012211278718092572
0.02772057309344523
-0.01510527583133592
-5.177838664613436E-4
0.0395045043863468
-0.1324987081019583
-0.09077694865957485
0.07576762769549795