# vtk DataFile Version 3.0
vtk output
ASCII
DATASET POLYDATA
POINTS 1480 float
-53.33151625440589 -14.001632671063318 -25.459813232486233
-52.02035793188251 -14.292480609830232 -25.37627076142241
-50.94162742133492 -13.220998846451296 -26.125902352073872
-50.940653350556595 -12.55772325056811 -26.60655098626804
-52.359621300246516 -12.860248142535498 -26.087574408647004
-50.256724883011685 -11.596356342566187 -27.1607656911567
-50.94575813084182 -11.918139120915162 -26.895336602777306
-49.97249865776729 -11.308123385253676 -27.21810806574025
-52.00798228298667 -11.277760992897 -26.555858843688753
-50.61887353676446 -10.97321195129058 -27.24277500924357
-50.43004587925702 -10.10289895873022 -27.370010070253517
-51.29076255787746 -10.04811701219507 -26.94719801352288
-50.672352074630915 -9.505123456799947 -27.233388059460204
-54.70932190998079 -16.308655000606716 -24.32699623741186
-55.171407358007514 -15.714073989761783 -24.76553862204693
-53.91881116814931 -15.078165586308499 -24.889444734980795
-55.351642012809464 -15.018289740998082 -24.673159250610986
-54.95324057450376 -13.598506116963975 -24.59083170810457
-53.70302343394287 -11.763981325431708 -25.405442098423716
-49.51965471207564 -10.48554672694804 -27.202019655179097
-53.08064450653935 -9.992581617610115 -25.539911549806508
-50.06043722168548 -9.466928306184286 -27.284868486611
-48.78250224411114 -8.837486440654661 -27.140755375887874
-49.946173285898375 -7.653693997752789 -27.04888515007684
-49.45972985134054 -7.803487439316298 -27.15190966330679
-55.78959861559679 -16.73829160267527 -23.761425197468693
-55.973097797790636 -17.152745034134885 -23.19566163591268
-55.58788945002407 -16.29036983516889 -24.446502799482914
-55.46310262346891 -16.085862680944405 -24.64907818468872
-56.17617218797182 -15.758511709849683 -23.996000991816636
-56.27863484900633 -14.669393611910083 -23.881227164775535
-50.86587149944978 -8.374101349834794 -26.58930668203875
-48.147180654084835 -7.3601315004148935 -27.264627826317266
-44.04063861899029 -4.363646311311385 -27.519114162598356
-48.043625403652726 -3.827345462382434 -26.48504785190107
-44.06169156423767 -3.131262042985454 -27.801021573710088
-44.975397585249354 -3.0570071606499285 -27.566386014283985
-45.465382072741285 -1.9597786692009609 -27.40848376921989
-43.0771236471632 -1.9563724733922134 -27.905498515185137
-41.16035896527467 -1.1888089117821277 -28.252404873373077
-40.59802252713829 0.6163141941470318 -28.528426615119933
-39.36486196903404 2.6176526514344736 -29.24470661882628
-37.887185396792255 2.249430972524499 -29.288913233762027
-36.712345978757455 3.388016874351624 -29.706696965227337
-34.603107472109954 3.856267499695968 -29.368786102283217
-38.15396491689611 3.6541656336168407 -29.609976788644005
-35.60640276782743 3.859875311525084 -29.72035759772327
-36.50902463366622 4.3875090809981145 -29.875852838372335
-55.059180714346496 -17.563092565329907 -22.655152764143388
-51.68610909594547 -16.219919233632556 -23.40857636149318
-55.92747331433723 -10.969229495346603 -23.23243747318834
-42.937969703901814 -10.444539935934323 -25.21048024989509
-39.48696600348364 -9.661580718933298 -25.00453329928955
-38.1660359933864 -8.606828652177215 -25.337187289035892
-37.662911412302485 -7.914600569553203 -25.579837669027025
-39.27188153231952 -7.274076523204531 -26.109477186167023
-47.14095946506883 -6.790893652328024 -27.316365890070664
-45.59510168667863 1.0690419701448084 -27.054031238856926
-34.868985939396616 4.888389128547937 -29.636567465309096
-36.15590198615101 5.185433980001983 -29.872888558917865
-33.68629090790106 5.6615672815674465 -29.31261947814071
-35.663962683826306 6.1526481654016125 -29.621687744942896
-34.42973298458273 6.077641213301823 -29.598201553120845
-58.28449651407528 -20.86842708739688 -19.771417716177428
-59.0654290957306 -20.069850320585665 -19.92920762491783
-57.034210000670804 -19.28872279306946 -20.62802963607052
-53.00015424705619 -19.804042899744164 -19.338439360238873
-56.89632413634065 -16.972294516006322 -22.460726394201775
-41.30426124392446 -11.835121895903955 -24.041614614849642
-40.376527860130764 -11.03022322708179 -24.37048117270361
-58.35314171844475 -14.133570593805842 -21.34300397601611
-47.26961794990427 -10.518799161093678 -26.406040172024838
-36.745850899678544 -8.502080056026902 -24.986365815411595
-36.597585646715125 -7.193453292930624 -25.61742111160798
-43.02291698134913 -6.55060361912769 -26.954812110994283
-49.401396992773755 -6.764151082676072 -26.90977914414162
-46.37226852022352 -5.850126933782582 -27.26762475116401
-47.85832330125256 -6.124330343448654 -27.194136933391565
-44.89512700819422 -6.148707566783139 -27.30379279357952
-35.50526960654309 2.7357095426096754 -29.17370811680886
-33.112811082259796 5.828524276580242 -29.073051245968728
-33.68191421360948 7.644687535819112 -29.099275620609923
-40.798075622165484 3.9508770756497418 -28.823235780818976
-58.844125883698105 -22.054567440504716 -18.860336821471137
-59.05048683593681 -21.099719970233608 -19.654096567613554
-57.99137734548269 -22.733437500398917 -17.854615830311147
-59.722372239259954 -21.173702429718013 -19.264743630766322
-57.10659157197761 -21.50429371079785 -18.83024521573673
-60.42206363582215 -19.900155282224052 -18.986452821318487
-59.377777306782214 -17.829547652075288 -20.105889429224913
-41.30533598216043 -13.069434417969788 -23.105005861577844
-39.78766579142874 -12.200306275865572 -23.370710328078932
-42.28505086400852 -12.342433109183553 -23.886479125142255
-49.589095903542955 -12.133846860574746 -26.53142239160192
-38.536173961804955 -10.928646198770736 -23.93002126667436
-46.79180982047537 -13.32217742500501 -24.551636070307275
-37.82162187828607 -9.585544510839867 -24.664111836563865
-46.07994789175578 -7.81756165192586 -26.98516094325385
-36.82989607329185 -5.914231701070003 -26.25052637637274
-35.20477365677111 -5.97549705975814 -25.823607139067235
-34.47452058661601 -4.925205513265343 -26.106786482880793
-37.79506936336807 -4.4559507630151005 -26.933625890134774
-42.75340229233333 -5.172079075115002 -27.405493389183956
-41.171087309515784 -4.592796376956831 -27.413583772186506
-40.91799127997713 -3.3719889008369477 -27.827627061309954
-41.80553471546683 -3.303043898073288 -27.832153203857278
-32.724746500777876 6.149047741506605 -28.92353774248236
-31.76540448770996 7.2818183450636615 -28.571990747305442
-37.66890754140918 5.30636843896771 -29.582455915617018
-31.689494442087952 9.02280803207565 -28.646793263694068
-30.763105031254046 8.822114949910748 -28.25436643238289
-43.635318959354095 4.106629384169521 -27.97794309089419
-43.7106337848062 5.359236235411505 -27.80357565906664
-39.09178066747625 5.9875996860155665 -29.077166820500313
-42.39517891764246 5.457290341293501 -28.238442814089787
-59.57368790559315 -23.039512764472423 -17.97180839213901
-60.55546617936655 -21.44563042640578 -18.430712715251943
-59.89826116987352 -22.166247166070953 -18.615428546585928
-58.631512282460065 -23.21035230194618 -17.55745827558103
-60.41926892559408 -16.021263252950586 -19.266733022967053
-39.81159413217019 -13.36491430795061 -22.430351584723702
-45.944019902393705 -14.874535379414002 -22.899024956643736
-43.72142770911179 -13.934589527438197 -22.978185872917244
-46.86642289080734 -15.12780674772115 -23.00882073584603
-49.876641003585384 -14.102514793704719 -25.070841051938896
-34.045028954702644 -5.647693164367317 -25.61584580260059
-54.42126076232959 -7.430664325417967 -23.40328739100676
-33.51605479845734 -4.299732126450827 -25.992244319881117
-34.41562498622372 -3.9957782763263165 -26.43536848060062
-35.47507792228067 -4.578891050000999 -26.47414545219851
-51.19169596302178 -6.155315815110881 -25.533067397624226
-39.773089460599884 -2.214680886316768 -27.910327305861554
-45.51292086013047 4.917547589401897 -26.90068803397974
-43.183562322215366 7.169967102529202 -27.226283531612978
-40.529656610894 6.904740668819374 -28.291891794046983
-37.358277192692505 7.8546806521870565 -28.794298616719594
-59.97136096640394 -23.530300267540767 -17.40210428109574
-59.30309431005444 -23.929042412366627 -16.83730412031654
-60.414542223825926 -22.769848064287043 -17.72584117776243
-61.24578736999544 -20.50870831970385 -17.630488930005303
-61.26921766600111 -19.447880402690732 -17.938827528750267
-41.86153271060946 -15.70109194529972 -20.862109131189
-40.889623699308295 -15.766746594919043 -20.48566058493344
-43.10166699539731 -15.609722529516485 -21.281100702027196
-41.12880154353826 -14.58865610045411 -21.711920595544054
-58.25333445048307 -11.138631544546483 -20.958380732366756
-52.89377070932006 -4.320342128762888 -23.53352795921502
-37.05847683470767 0.4469873330458409 -28.489608491470072
-29.5922010933305 8.306588969807729 -27.246039981355782
-30.365594414402345 10.828041623567513 -27.920615247692883
-50.74590430244223 4.698562137185557 -24.435518392580473
-32.2622203944064 10.702016835973927 -28.542244305304976
-47.588680113892984 8.075293070451956 -24.611364423175093
-34.68851121011556 11.919006802158647 -28.158568842466067
-61.04240613941011 -21.870240392261596 -17.434625068873782
-60.93817461700191 -18.665041522888544 -18.45510886381395
-61.01890478360211 -17.446892217247857 -18.389729947340964
-48.32660022557278 -15.190551570840533 -23.476715109415764
-60.93904587946998 -14.676217345862035 -18.492647502346685
-58.122202569048376 -8.622412026309343 -20.210423937469777
-33.055698428657244 -3.5674847992613796 -26.068252006058945
-52.43741388226399 4.292082275394853 -24.157410494204605
-52.554325055988556 4.354470507805151 -24.17682242719925
-48.62659769241015 8.184649162193026 -24.053420178625593
-46.02583127688999 7.49964674196275 -25.661310424752088
-43.71426204458356 9.247574072147128 -25.930879123132645
-32.94401186013893 14.129768870737315 -28.244121342160977
-32.45036856341079 14.849116045137981 -28.267583070648126
-36.46191486801831 14.159423302162697 -26.980194261018507
-60.06027015339451 -24.431025124558126 -16.45301389734225
[...]
POINT_DATA 1480
FIELD PCA 16
mode_1 3 1480 float
0.006280033153350566 8.490124426750196E-4 0.003268881818605413
0.006247434898527648 8.681276768403852E-4 0.0033699247126095996
0.006134771567696104 7.405364232700558E-4 0.003445430712184687
0.006083015626524562 6.736001414787975E-4 0.00346182298696472
0.0061517349378954235 7.454139482741881E-4 0.003345351018431161
0.0059493743737473745 6.308567402686426E-4 0.0035476694857056656
0.006013409982356448 6.508436917145561E-4 0.0034826243628661726
0.005889918957505907 6.446970219853811E-4 0.0035801563773881066
0.00595947105340124 6.968820563624153E-4 0.0033992043267217767
0.0058744387409409345 6.479721759513978E-4 0.003545225221952884
0.005725754867331242 6.848020422222592E-4 0.0035980940376358767
0.0057492367651525685 6.988616714804468E-4 0.0035074706731689272
0.00563134468049998 7.109203454226669E-4 0.003595008567784395
0.006436029016342123 0.001127199315849328 0.0032422864114082036
0.0064478878726066885 0.0010289403517402809 0.00318204683112479
0.006361748395050991 9.740311992197574E-4 0.0032479530974848306
0.00639976051155768 0.0010149904645106575 0.003126829985299019
0.0062617966529978485 9.597792643942501E-4 0.0030965698304213822
0.006057886465468338 8.058091464658813E-4 0.0032007691763313558
0.00571929235902385 7.076014874805531E-4 0.0036450426848996537
0.005799005862277898 7.559603838348967E-4 0.003267033916806131
0.005583264731596505 7.265430024568705E-4 0.00364930410472373
0.005361357741629837 8.068943234986686E-4 0.0037797281631704207
0.005208416372484441 7.954488793043669E-4 0.003745914063048922
0.005205121434995892 8.109518940662866E-4 0.0037862452335956113
0.006447752773771985 0.0012628391252336908 0.0031785886816757102
0.0064269835516020364 0.0013895844309563992 0.0031837352560387306
0.0064754099524605745 0.0011130736297060232 0.003176711233639903
0.006475349520584416 0.0010667103382983878 0.003177726562048858
0.006434000550883394 0.001160774764763778 0.0030812671357949403
0.006367082477857158 0.0011150106860204026 0.003000101201936312
0.005413224190346965 7.469689960982091E-4 0.0035827628399023996
0.005017069586956024 8.521715799455242E-4 0.003936699832377605
0.004070893150559022 8.659689089169864E-4 0.0045880788337954205
0.004234466940626536 5.30318013016749E-4 0.004111648609725837
0.003755746824276382 7.580378561015623E-4 0.004759148770459245
0.0038016279669240414 6.822269826750883E-4 0.004641465804852481
0.0035699807932762584 4.438340319146942E-4 0.004655810698456947
0.0034230733207938468 6.092532479878855E-4 0.004979407728601482
0.0031319547021832796 6.064332278336731E-4 0.005318390707975576
0.0026569569645898254 2.6454760956826925E-4 0.005622684325474433
0.0020666157971326164 -8.217106229320332E-5 0.006135881451958997
0.002121520864408663 1.1869111191141009E-4 0.006266970308564725
0.0017963617270192207 -6.152351093725042E-5 0.006616442695873743
0.0017206861061773442 -3.770208283043641E-5 0.006727318467826636
0.0017703315416957672 -2.459923579395875E-4 0.006460414606929666
0.0016836124079270182 -1.0387148427163311E-4 0.006764585402582554
0.0015614312915300209 -3.1370608974063964E-4 0.006771766552475051
0.006375546004579949 0.0014938541417796264 0.0032821191249526433
0.006275544541139601 0.0012538490479611546 0.003422620509708529
0.006010632981012498 9.411995688642926E-4 0.0028748547422937183
0.0052862965922930725 0.0011427124985503444 0.003945023502908519
0.005034732904202389 0.0013622345548508035 0.004132611538741151
0.0048001061777318485 0.0014425754460555926 0.0043125680518491605
0.004650416670585556 0.001469566814404217 0.004431429425756254
0.0045539855251951426 0.0012963666808323685 0.004471864956536069
0.004822507351284622 8.816956317071111E-4 0.004068649922581062
0.0028779516380545416 -2.1706922153581743E-4 0.0047798162227047645
0.0014842818553529066 -3.3774439861838565E-4 0.006873951535261418
0.001401953231500456 -5.144072538968446E-4 0.0068597229821090655
0.0013862362665897382 -4.756456193877936E-4 0.006905503160771047
0.0012699403359960873 -7.653249770392971E-4 0.006862628443052746
0.0012786206146045162 -6.448666511056756E-4 0.0069698069348670625
0.006207946678255148 0.0024237937756806053 0.00336615784926073
0.006218372417614305 0.0023642815119397638 0.003208243405114536
0.006275304621663094 0.00205043052098709 0.0032799286688446508
0.00620137261756469 0.0021176099954681904 0.00358696700596348
0.006378813111585591 0.0015214478012188666 0.003086445105743915
0.0054729056060996316 0.0012733270844796907 0.0038193933034157703
0.005306876582258634 0.0013308464268002543 0.003935474326315323
0.006275708410824184 0.001412605146567706 0.0026900836088799623
0.005544672773615016 8.68333431918937E-4 0.00376418467407669
0.004703802099735382 0.001625822108750199 0.0044248731344527096
0.004455263307861895 0.0015614320099034643 0.004606903146199118
0.004522887341878411 0.0010405541381633262 0.004394036626575585
0.004978721364844259 7.66292110022714E-4 0.0038359551787766535
0.0045611863279716855 8.521952262024484E-4 0.00420720938467738
0.004726302768883591 8.05157801894E-4 0.004043653431238648
0.004533661370112601 9.41816942822598E-4 0.004317229142254362
0.001995322497792133 1.6992484877550657E-4 0.006490693692550084
0.001388164967766098 -4.824807727155813E-4 0.006872634659350921
0.0011072829701666673 -0.0010508880195107626 0.00689240201828649
0.0018572537098849684 -5.539101600991318E-4 0.005951491432063405
0.0061203820765192455 0.002726306725790043 0.003481131137558655
0.006189420777491746 0.00252861113302291 0.003337420378483515
0.006058922357516934 0.0028315791703641844 0.003632415225638803
0.006147650299726036 0.0026437478973627446 0.003298699334827441
0.006145908266126879 0.002526556030135092 0.003531294820021093
0.0061467938057659455 0.0025381478443937157 0.0030709523971730514
0.006249307427011579 0.0020609870320249016 0.00292149227949295
0.005638338360949949 0.001386597133907284 0.0037452944710217075
0.005446629643925701 0.0014925289771507853 0.0038733624747013125
0.0055745518451628135 0.0012381150977324614 0.00376711632555212
0.005947954182272542 7.243082846296614E-4 0.003560092489612476
0.005186837705120353 0.0015735354075407954 0.0040651901558273916
0.005886457779142531 0.001041492617747126 0.0036315951281093977
0.004948724340592378 0.0015515357113599028 0.004226272068623695
0.004965175126111151 9.294306381112618E-4 0.004053249526756125
0.004203524044114445 0.0014349539790042601 0.004785307073570284
0.0041597210939556435 0.0016253062870134958 0.004862783772636835
0.003922943710555851 0.001598281619047028 0.005054859461966316
0.003878552887276091 0.0012228833418481252 0.004986828900163335
0.004199968957929499 0.0010032029537904636 0.004597003137139149
0.003999658249449449 0.0010365836695622895 0.0047886601891135435
0.003685187572821266 9.535641417058638E-4 0.005011848814271803
0.0037032290837864194 8.934994315267889E-4 0.004942632713556868
0.0013514231719505472 -5.412466549591673E-4 0.006853241933098767
0.0012029109445526917 -7.76421220956643E-4 0.006803825456780964
0.001441998362196646 -6.758750942532503E-4 0.006606381502888119
9.381324315976513E-4 -0.0012696102163338259 0.006890793747331099
9.967490683855471E-4 -0.0011231149427085052 0.006774659147218727
0.001948760570666894 -7.907829660705898E-4 0.005407738171768261
0.0016876004894899686 -0.001136762026978062 0.005400114308349796
0.0013978726005084874 -9.95846595561718E-4 0.006319946306880055
0.0016035875020034066 -0.0010765978251779003 0.005678843134173208
0.006015380546015285 0.003036831385106348 0.0035773876160223764
0.006066092924319585 0.002843570883818194 0.0032760488409974554
0.0060741647213073055 0.002876332661324233 0.0034270034971780384
0.006012749020848951 0.002992357246983595 0.003659923094143777
0.006246829164453982 0.0019501537965266975 0.00258776345954717
0.005593557433080886 0.0016263309767943406 0.00381499260996838
0.005994130258486799 0.0012848709713502754 0.0036195190995982982
0.005806038811836853 0.001338005987717222 0.003691688927274038
0.006057416303317273 0.0012538739267330408 0.003592469410795171
0.006128202033910225 9.185872964424138E-4 0.0034877627902442014
0.004038212510273892 0.0017316079747126032 0.0049796808124727525
0.005488781538729577 6.394612134089439E-4 0.003009130674131616
0.003720341603029264 0.001626022936739831 0.0052112490864952565
0.0037031667123166184 0.0014846294841504642 0.005215810196526614
0.003867646548290566 0.0014413946331225346 0.005067807266029615
0.004997660452053383 6.38224909598217E-4 0.0035648528857167667
0.0033612345493062865 8.432822730308002E-4 0.0052593210642293015
0.001976549559186646 -0.0011606833227975055 0.004907003911356358
0.001457698147329984 -0.0016721994928523786 0.005330331410307424
0.0013556802133181177 -0.001391827730413831 0.005939932668213954
0.0011370463177722478 -0.0014290578782589075 0.006458461823988493
0.005946254852697246 0.0032156174032830047 0.0036300827149940026
0.005917227185970939 0.0032523159934349996 0.0037329488573099637
0.005979203331889909 0.0031078684933978917 0.003484990658575541
0.00603992297140427 0.0027958474484993 0.0030727875136206837
0.00609747204191905 0.00259955037427385 0.002914233182689625
0.0059321412762250066 0.0017572788274245479 0.0037018984475559397
0.005878241642116351 0.001941632975783602 0.0037777541357828536
0.005954654919843156 0.001641483159818693 0.0036782225746148285
0.0057909159356162076 0.001650963802000689 0.003731000058979214
0.0061204555531638866 0.001125434401095581 0.002506272188133777
0.0048169536435963955 3.524896426611129E-4 0.003249022390920319
0.0026074315803898463 5.463929297415148E-4 0.0059388713477686005
0.0011826157293987546 -8.841131635530773E-4 0.006370174755025987
7.908406392787028E-4 -0.0016763641288373653 0.0066561496422387735
0.002523358442229856 -0.0014080670252665805 0.0036420986032772817
7.645751487942436E-4 -0.0018357074050056026 0.006837449412412491
0.0017417544655876143 -0.002316288440194957 0.004078176159445394
7.065771645547788E-4 -0.0024538649853733815 0.006550151000427897
0.00597698816254857 0.0030313280222744204 0.0032991734481957933
0.006149822944542781 0.0024171718232610688 0.0028454902367181694
0.006184190968339535 0.002244229957978534 0.0026747492274888283
0.006120450947501924 0.0011849373091646948 0.003543395066584732
0.0062615677237252 0.001830900546559303 0.002347545094238257
0.005898460315444339 8.360764945351246E-4 0.0023899853158666734
0.0035152472296864786 0.0015782208310610858 0.005356423027835856
0.0026716073504067495 -0.001290878225906754 0.003329330314846141
0.002652414040321988 -0.001310760705233039 0.003302336445177667
0.0018442884830164963 -0.0024339171496675013 0.0038167859062179124
0.001670327112197933 -0.002004513888539499 0.0045543813211751175
0.0013106524571748592 -0.002406968939359298 0.004927007599265873
4.532507092552155E-4 -0.0029750456921513223 0.006759581974883281
3.8122427192218566E-4 -0.0031525793805417014 0.006817495440201717
6.350516090385751E-4 -0.0033375012868632585 0.006009090264309717
0.005842793298319352 0.0034642719345515166 0.0037735840032664916
0.005860869381757574 0.003415206970228391 0.0037648326288021246
0.005863877428811835 0.0033894879932467765 0.0036789256913325706
0.005896721677928611 0.0032312261605992494 0.003452495086342718
0.00618216540895346 0.0012317981322742986 0.0021391638291979043
0.0049053813388006415 0.0018756727869337166 0.004335489665705457
0.003933229494500122 0.0018008475790542806 0.005058180781804299
0.002368505411566282 5.357579456008912E-4 0.006209210874799018
0.0026084168808050284 -0.001460204593360492 0.0031811573351858313
0.002390604380838358 -0.0015702517136703795 0.0034295104310099224
0.0022400258007707944 -0.002153669124592754 0.003389244382595544
0.0015876699608289347 -0.002646791658336509 0.004050879962435662
0.0010089516457408344 -0.0027548330760686426 0.005441638416713997
3.4263627511491187E-4 -0.0033330038478966047 0.006827994922548858
4.206817099555155E-4 -0.0034898998110197907 0.006548907748497209
3.159283297942204E-4 -0.0035922955653636644 0.006785282369167908
0.005815741560905025 0.003503861890448362 0.0037597390517552904
0.005833145740278232 0.0034832998873380256 0.00377290105003517
0.005903142818430765 0.0030595349983069246 0.0031938407354189457
0.005990083363435167 0.001990213182195079 0.003773496026514615
0.006194549930865391 0.0021348994079094527 0.0023929347548173148
0.006268874115561448 0.0016169613056752539 0.0020800448887911323
0.004320895191279401 0.0019351288465827763 0.004779774544353574
0.0021956801960609745 4.4146836038311385E-4 0.0063429889150298175
0.002631998564898588 -0.0016784528707509043 0.002956050143973438
0.002451742477531897 -0.0015645911250512813 0.0033226147148033014
0.002348071812348786 -0.0016908836072123878 0.003442367822152582
4.70620456076003E-4 -0.0028038423344994875 0.006688537347497549
3.23352275071061E-4 -0.00369874443690209 0.006508088154433719
3.17662411088181E-4 -0.003602722417225245 0.006743084707720324
3.2930438296726076E-4 -0.0039027116106805934 0.006586282816558614
3.2206864224468366E-4 -0.0042363097795712675 0.006433391916771543
0.005780585561702205 0.003522517123839367 0.003741891495597781
0.005827379385928711 0.003438170963026171 0.003803934888631303
0.005802171010822113 0.003496953979446803 0.00370317872944531
0.005885271651504186 0.0032823831219677708 0.00380566155014512
0.005855119970735102 0.0024209623872132554 0.003957081049889877
0.0056282764807008695 0.0018076337866654863 0.003843550105746935
0.0053485115122488495 0.0020219498615040975 0.004072242270860414
0.0062368831844274155 0.0019282919331025526 0.0021100196966156812
0.004787718281351337 0.002644070778745629 0.004590002422290678
0.00354742361726748 0.0018303354321627548 0.005293365346682344
0.0029291279186640265 -0.0013553995981251713 0.0029988981544306586
0.0027663853703030973 -0.0015331162338289009 0.002921319084730155
0.0025250998401409224 -0.0018339734176745172 0.0030468272624698473
3.999905471244431E-4 -0.0030924443763121366 0.006350298356253561
3.315157517699971E-4 -0.0036183755085050055 0.006043910083854747
7.152125457312957E-4 -0.0038997281813007755 0.005323180259179393
2.975993541117024E-4 -0.004131967395271979 0.006287368211533524
3.073184412893713E-4 -0.0043739857127037965 0.006362158453045491
5.405629092028442E-4 -0.004061709346179607 0.005779141004715046
3.3581918021892226E-4 -0.004681008598448197 0.006219217165900842
0.0057444889187184805 0.0034914994077024017 0.0038784003443544063
0.005718518448125108 0.0035534024745042083 0.003783101778260395
0.00577606337268549 0.0034089697984131273 0.003554326124798836
0.0060326718774014075 0.002701252085757974 0.004038696273939136
0.0056760955579037145 0.0025312750395091164 0.0040444851774753465
0.0052165176653453625 0.002788421358157858 0.004356376210407941
0.005689885052542788 0.0020969946511726957 0.003903907481275611
0.0049889199544639225 0.0032759214497342505 0.004603360111868309
0.003916258560058885 0.002973778633868922 0.005098082681668528
0.004128610309729792 0.0026543354806705115 0.004982951234342571
0.00606222634268513 8.691615813405612E-4 0.0017733997266737873
0.003448040624929198 0.0024839621179300886 0.005158347063163344
0.0032390182076040626 0.0019692901711961283 0.005395040043224102
0.003962736766022656 -2.702355064963391E-4 0.003393997491421015
0.0032158244131342633 0.0011882181234440191 0.005551547344659252
0.0024291947427097266 6.465174925354141E-4 0.0061652644347421365
0.002999199908617128 -0.0016073833632216249 0.002708239437138158
0.00278884255606343 -0.0018801633703589764 0.0027519196402930406
0.0026184857786065367 -0.001991035488127845 0.0028599592617653156
0.002395736697810133 -0.0018747941286703864 0.003232589067199414
0.0019195563642315306 -0.0030294615622255073 0.003425019992298507
0.0010351285575545563 -0.0034497919290940684 0.00470068264875868
3.382019535205789E-4 -0.004789934155519549 0.00611881934404381
3.676237483787021E-4 -0.004742172213806533 0.0060807335276693245
0.005643160271162041 0.003620317854540017 0.003881202333567178
0.005873077424704059 0.0029218726517724726 0.00414315344450403
0.006105735834436458 0.0017230845950920767 0.0036723829696031006
0.006170339549509485 0.0023600961451018514 0.0038782300543118817
0.005668729958404127 0.0029237463674753298 0.004191387966088444
0.005388831542622095 0.0030897683426090354 0.004352623264265288
0.0054988582605193 0.0025342747251228103 0.004126299709376536
0.0047328833187693506 0.0033934137385061487 0.004778798043256869
0.004520340902325012 0.003676454075198582 0.00494457675329341
0.004320736347740943 0.003837471120887597 0.005032491810321259
0.004089267767111376 0.003705461845332928 0.005005315100042555
0.00449544304953166 0.0031676572791925735 0.004872668724248557
0.004196557334758759 0.0033670191772193297 0.005021815287349566
0.003884251648532808 0.003230579019386435 0.005054775302476408
0.0036657303266102136 0.0028330637689599355 0.005182244529657188
0.003761317131897888 0.002959085836122741 0.005152385921393997
0.0062659260151559475 0.0013394149556639704 0.0015748522879517031
0.005323800080723798 2.5388412000180403E-5 0.0021704803897540314
0.003044734523685878 0.0019225127278830417 0.005401066264312009
0.0018139624651954908 5.1313412882534567E-5 0.006511259423751866
0.003990452688533581 -0.0011847238332889306 0.0023849376517038503
0.003380909496761627 -0.0015461110943635616 0.002496449879486998
2.8080177317275017E-4 -0.004128924933693978 0.005690793811468366
9.125337646103665E-4 -0.0043132586589238655 0.004372506796391456
2.955506973983662E-4 -0.004327819392431091 0.005994911655284371
4.2826735250654476E-4 -0.004510694837712487 0.005929549547665598
3.1415586794397216E-4 -0.004599877542238996 0.0061292743854089
0.005656683386903235 0.0035577742110167857 0.00396598612759581
0.0055923635289278 0.0035628106986057397 0.0036854404109063293
0.005902043455602294 0.0030999526869290033 0.003831027912160146
0.005710805891724188 0.0031045875070020595 0.003056936070996173
0.005946093848832631 0.0030037907387775132 0.004162877439783681
0.005877536939584635 0.0031394784091192513 0.004226119464965171
0.005130954091037744 0.0034696107390674723 0.004572892878597497
0.005573901723766792 0.002763341742810052 0.004160764328346862
0.0051940126629452105 0.0031682212654622656 0.004467857285487099
0.0060355893526982144 0.002575138279463716 0.0027014984746796073
0.004480753298811471 0.0040329900889403665 0.00500734626166604
0.004011414201025771 0.0034802859805499646 0.005015144820866966
0.003755400779053638 0.003070837437335036 0.0050997689576804135
0.003674213339148813 0.0029174709200252323 0.005136980079437002
0.0029033659419545107 0.0012903963063950542 0.005725307306834931
0.0027384729799300347 0.001260612918611767 0.005789105604074296
0.00256683293433663 8.561320941035538E-4 0.006013186242959715
0.002459129671238941 9.096727198745871E-4 0.005934366611811231
0.003784202942842364 -0.0018254820540475475 0.0020675582685132352
0.0032087639741129586 -0.002003609799631243 0.002408473907615506
2.7838863058025215E-4 -0.00438454617469011 0.005343824955755165
2.966241932935553E-4 -0.004601761674680439 0.005623705277110724
3.293932292555909E-4 -0.004826975596550269 0.005793371405496312
3.6595377347443714E-4 -0.005036764238184728 0.005813566456086111
0.005530363323136845 0.0036808937834945502 0.004030612589485278
0.005557915801795573 0.0036809697449839457 0.003934412011236579
0.005881282283346356 0.003246654474118096 0.004268224514380021
0.005479857314207642 0.003392781553769036 0.0044210638337831894
0.00523538982208849 0.0036127749488810974 0.004572639505953191
0.004470767750419828 0.004187684921279999 0.004981934315043554
0.004348083592928096 0.004045965059908851 0.005049300102808303
0.006236045351151719 0.0017699547655938177 0.0018147341339429608
0.0031717835204480493 0.002545558286420236 0.004785523753955282
0.0029535468904117947 0.0021750394602919987 0.0048720778590182435
0.006258958813138286 9.87119528084886E-4 0.001384203538766482
0.002789560919453381 0.0018254526007036138 0.0050750435642419
0.002995170944817149 0.001985448426214522 0.005293067951642596
0.00281847170233026 0.0014194820213050264 0.005610118322866075