# vtk DataFile Version 3.0
vtk output
ASCII
DATASET POLYDATA
POINTS 1480 float
-53.67457249441585 -15.008999683129232 -26.203461780787606
-52.39164331440904 -15.395410880337591 -26.135861295160474
-51.27891224840256 -14.38402837458462 -26.967818591599332
-51.245322926059856 -13.705375041287294 -27.480493251804944
-52.667355559327085 -13.921978506652644 -26.910722149062913
-50.5293308042087 -12.772227336444548 -28.093427906513554
-51.22432239518378 -13.054632914956581 -27.79694573908583
-50.24388020923968 -12.498346318642032 -28.1659081047732
-52.269917150804034 -12.346457051466004 -27.45252340211385
-50.87012153192595 -12.114259833666281 -28.187436274137585
-50.665554020248685 -11.240590224906715 -28.344865666768612
-51.52966800572454 -11.139925456720448 -27.89999396916494
-50.90376497036223 -10.619666278283653 -28.21526118913009
-55.12792981317318 -17.226795513046138 -24.905959747286023
-55.55697727816382 -16.593151785776858 -25.371081203804117
-54.29986858652223 -16.051475150677245 -25.559635685798202
-55.71867905570758 -15.898427461751506 -25.313984271208398
-55.29177560833734 -14.52638166652885 -25.314480161561377
-53.99214219944053 -12.757367392977596 -26.239709804056474
-49.7951821216203 -11.691170000579236 -28.17736848731853
-53.34925716770162 -11.014331946356167 -26.446404609764418
-50.306483976581966 -10.616537651279144 -28.277239543110817
-49.0809506801929 -10.045839614939396 -28.152124810860418
-50.21279824360798 -8.76027176772272 -28.058407856555675
-49.73543682269738 -8.939526612478922 -28.167883173957282
-56.21819084148295 -17.593172207992215 -24.28794580479033
-56.4229093358943 -18.008275981427374 -23.690186139868352
-55.991812379184346 -17.142043784979244 -25.00741594435358
-55.858245367188616 -16.942305068915598 -25.22584200495074
-56.569359447352916 -16.595621212237173 -24.575661079648796
-56.645495627597754 -15.521205117001825 -24.522401991135332
-51.12950942966074 -9.466557680451894 -27.57390267323601
-48.47409579185492 -8.543990329219119 -28.292194844654755
-44.69228359734845 -5.506602687443629 -28.477973202122396
-48.552166065199664 -4.84954693437636 -27.434227172992646
-44.7613424733877 -4.167704450836233 -28.723064745503237
-45.63693863970723 -4.0739286855149945 -28.48880538213601
-46.16236714728723 -2.898847395048759 -28.293914932552514
-43.91222822808463 -2.9087740163808955 -28.768626313596634
-42.171167221159486 -2.073264581292521 -29.05671291496914
-41.755759422456116 -0.10466024649514617 -29.254926892754394
-40.718384181651665 2.093498562304482 -29.879208817961704
-39.35141244974897 1.740685673895481 -29.902668478293588
-38.33390765118679 3.0168844591540633 -30.26154163616896
-36.40459428597522 3.5661873123282146 -29.89155591647739
-39.657014822023676 3.2478537954672193 -30.19131464872019
-37.34013065659321 3.55732068812678 -30.24729587316091
-38.18487439505636 4.093101364937265 -30.408767641135803
-55.54539878658855 -18.491924551062844 -23.139659974301672
-52.169412370465295 -17.394988349349966 -24.061540600691306
-56.24613454272723 -11.896298760491838 -24.046333236962244
-43.5227768665095 -12.15686031303904 -26.255677394713054
-40.22355955055845 -11.579484028743892 -26.077971343022224
-39.001914342441395 -10.484815188367927 -26.379528991939754
-38.5619191461973 -9.718043188603405 -26.58797226318085
-40.1189172249613 -8.894781238607843 -27.101402992166012
-47.51941944540692 -7.996998477541288 -28.34742510978545
-46.438610203981206 0.29325039144070164 -27.84606320932155
-36.685855625057734 4.664299999504228 -30.148310156154285
-37.88131210723684 4.944472560966827 -30.39524210255508
-35.59847065651843 5.498365004829076 -29.821575378366195
-37.43413730301728 5.956875267650562 -30.14917429857121
-36.301685845052575 5.925706369549468 -30.108195819863553
-58.83919413870562 -21.626884925836503 -19.95530893551264
-59.58656546189118 -20.796320695686298 -20.16261110148023
-57.56953625540932 -20.12477756264894 -20.949559624807215
-53.666726765832195 -20.921868304199972 -19.693593787367487
-57.34380104466593 -17.796893198986176 -22.94619204189455
-41.918466914408256 -13.845206245962265 -25.14950748120312
-41.03505912992131 -13.041553472258341 -25.476516032898303
-58.747209596667815 -14.950584767547927 -21.97415719658704
-47.65632401612209 -11.892876559883666 -27.39964769688047
-37.68037740850238 -10.409108835990482 -25.98524939635706
-37.61637280954239 -8.908770657164974 -26.561348622088367
-43.658070130339304 -7.921052447815376 -27.96006043088826
-49.71934169370825 -7.864244183864153 -27.913982719316593
-46.831494631845594 -7.031740302379163 -28.277470299635677
-48.2361464800331 -7.2625559274762805 -28.20811753706094
-45.42087417589152 -7.405199276291044 -28.31630926262417
-37.18523931655453 2.322955998439494 -29.73650992026292
-35.061191139349155 5.679743578796865 -29.5853306172207
-35.5908359864757 7.5492174528220035 -29.637403994595125
-42.08018050382295 3.4519526972586148 -29.46572822197319
-59.42295766133341 -22.786154436131856 -18.944991198585594
-59.59239882964319 -21.816514886627882 -19.810592436871953
-58.635914068546036 -23.513842954721227 -17.89155923761801
-60.257134310644226 -21.86670142051788 -19.408216652933525
-57.726349959726306 -22.339265883916916 -18.980087428238217
-60.934930271706605 -20.583868518700907 -19.217345078464405
-59.85530403230294 -18.568393101411047 -20.492161615655565
-41.9305405028434 -15.167908409832563 -24.201159296595595
-40.4601140429348 -14.368384374346858 -24.4862701109366
-42.87791100258144 -14.286021724754763 -24.964742820324133
-49.91569785852188 -13.37792972735453 -27.449110290700055
-39.28584504575154 -13.051900035710648 -25.01995697832365
-47.27397420865447 -14.853388421999679 -25.47484129183281
-38.642045705974105 -11.60068245193176 -25.723729037750456
-46.51141490074062 -9.133431084970532 -28.014196061164256
-37.91354779484682 -7.431391277485261 -27.15018950325934
-36.405704658822906 -7.531474882735811 -26.676967008851314
-35.804420455048714 -6.326201144500272 -26.89719591478708
-38.89079341932798 -5.743323476791899 -27.795999067684942
-43.44240623713447 -6.427195183498266 -28.383089936760168
-41.999529640134625 -5.829869927450129 -28.348559257040783
-41.818685744998454 -4.478030917876753 -28.719016423412487
-42.64884202425588 -4.389372835419419 -28.732476327713204
-34.695429359498505 6.023292169284665 -29.440610298468
-33.78437125267954 7.230574003198455 -29.1036682397999
-39.25505567666329 4.998976567143762 -30.142595454824203
-33.71683571834928 9.04494384553123 -29.199702060265142
-32.832474515160364 8.863780599633513 -28.80585800262152
-44.70772297999467 3.5266439479818015 -28.661389024693154
-44.80745662596794 4.8180844202022515 -28.47208277520875
-40.55864125669149 5.634411274448194 -29.673416465018377
-43.589527595821615 4.961431963808882 -28.888238428758815
-60.160209275014964 -23.744383155651196 -17.97146181160923
-61.09077985196825 -22.117299838153425 -18.546595037213258
-60.45170852384845 -22.853949097001923 -18.681737760854965
-59.26749123427546 -23.95980259116507 -17.54941144780798
-60.87221537869405 -16.753833433213856 -19.761184295968256
-40.490289187290735 -15.62034148365714 -23.536383756658328
-46.507076621043325 -16.55036094646042 -23.785950109201128
-44.31522456467671 -15.807760785511666 -23.96731821914204
-47.41336511625955 -16.717193414722285 -23.85729177997542
-50.28865785090198 -15.379294045504343 -25.89181717281966
-35.357458563734276 -7.157915159025624 -26.414219431507348
-54.73856113291907 -8.424382013771273 -24.338397521919998
-34.95411283077322 -5.598356576900604 -26.72274982826405
-35.80904503042171 -5.254640959250663 -27.18916698757854
-36.746183717834946 -5.919167841864313 -27.28428748184304
-51.534518517213044 -7.191996800762907 -26.5061333069532
-40.83519570408381 -3.206057474338868 -28.72805490615864
-46.47706897471949 4.297443160418849 -27.611730121396732
-44.348899017761994 6.675715769630063 -27.901784464401622
-41.8867365483427 6.505022574778685 -28.924721702656914
-38.9768187304909 7.608594191037865 -29.38493105864167
-60.560569167853366 -24.226154087137946 -17.35995322252889
-59.93673628552304 -24.65811170123231 -16.766440796981485
-60.97781368034879 -23.44896453357843 -17.74094815350206
-61.78018433554275 -21.177858322385028 -17.812168419628154
-61.788585592814414 -20.120842854435445 -18.19713310582753
-42.536414065705515 -17.87810229782054 -21.867239822386146
-41.58977366474523 -18.044918115249136 -21.50224187273551
-43.75438875498129 -17.63584177252945 -22.239100332858435
-41.79108426176682 -16.790727127624955 -22.7715095667045
-58.60490420392515 -12.01184650396209 -21.737345375202537
-53.291311811868475 -5.311229554542589 -24.492522390749663
-38.49299693473376 -0.23714782559034447 -29.151264831448188
-31.65924445024281 8.318654026383841 -27.804914296113235
-32.41037052135122 10.92241383962518 -28.51631944505542
-51.393817403980215 3.928532438789379 -25.218798255427934
-34.220803157230804 10.721540678792179 -29.136711430773193
-48.48874766118315 7.434695887626038 -25.367253296853107
-36.45860374061081 11.826861195527947 -28.80444598133242
-61.59305043008307 -22.538434540567266 -17.51575202869866
-61.44251343330939 -19.351804202440213 -18.7707409737406
-61.50778670351885 -18.1485457853632 -18.787270617226095
-48.83704642406479 -16.642349175755722 -24.280901462625426
-61.38106241831358 -15.42722258754801 -19.070153557136013
-58.469742928409616 -9.5461263643955 -21.085927907634257
-34.56850797843609 -4.74728792616159 -26.754198226110233
-52.968145309400505 3.4831627244282277 -24.940110072147665
-53.0759754416375 3.5439999041668666 -24.95567539936201
-49.46787150361911 7.507190625794104 -24.829561179042248
-47.01248320251163 6.907110979284379 -26.387721491433254
-44.87514374885765 8.749806507950689 -26.64446513984013
-34.79354631434906 14.13290899043354 -28.92314643690039
-34.3181737049013 14.877112553433333 -28.95968068313047
-38.0747169741088 13.974330471455207 -27.701462040760035
-60.67300570442252 -25.134944165482292 -16.337598203964895
-60.509024299191296 -25.03378333866398 -16.44402341371294
[...]
POINT_DATA 1480
FIELD PCA 16
mode_1 3 1480 float
0.006506390387458249 0.0011320410760449705 0.006630728088757813
0.006586244723521566 0.0011526122356319858 0.006586742444573181
0.006471098589561635 0.0010770356586905887 0.0065111533413082295
0.006370999375190454 0.0010315751249168393 0.006489840642328721
0.00637633595337986 0.0010659955547121498 0.00654645979943678
0.006227835713605622 0.0010172566694471924 0.006431001360103707
0.0062655387825051945 0.001018174368944161 0.006465593973082825
0.006173108232908784 0.001039957540897111 0.006416020139243413
0.0061322413558049 0.0010408804541633622 0.006469773534590274
0.006097707877809334 0.0010309480606301297 0.006423892000750264
0.005918831876389983 0.0010769116999673027 0.006396164568392038
0.005906624866241055 0.0010690615644725647 0.006410924959304803
0.00579219547676938 0.001101179907919399 0.006385541063863461
0.006729627112842733 0.0013330960769036375 0.00678740406822972
0.006644992047408833 0.001263426283116476 0.006794416269947466
0.006619162481652787 0.0012209778540631577 0.006699983242038592
0.006568613068250701 0.001254196954399443 0.006754355140739144
0.006426237670175408 0.0012104843209842001 0.006637220823165597
0.00619659354534681 0.001099865270475963 0.006519513038491838
0.005992669181131497 0.0011240325489450878 0.006394703297054563
0.005926049726211644 0.00107863204716664 0.006415601068913775
0.005776451635169808 0.0011374124565747617 0.006378097639844161
0.0056022625484898215 0.0012764869597465406 0.006369629937904405
0.005345768613756555 0.001244173309279824 0.006357648960999885
0.0053664817935649405 0.0012742622151287878 0.006359769502406748
0.006745152576037477 0.001437785543070259 0.006836313961180357
0.0067897998197816506 0.0015324031683470241 0.006840863671052645
0.006695182410358727 0.001326893820309555 0.00683489887972388
0.0066752252319900104 0.0012920244135342792 0.006825950172892202
0.006636448275375061 0.0013652843255574048 0.006800877860296588
0.006528227655627035 0.0013302243988755915 0.006726468057340107
0.005561922503626629 0.0011555940109461047 0.006356742518153147
0.005221242390287716 0.0013845327369579788 0.006363367247489535
0.00425795034892757 0.0017493142321502427 0.006477556698480676
0.004470851367655337 0.0012481114992559871 0.0063323578964403215
0.003896427504464842 0.0017111841423692745 0.006517208013645271
0.003963743467443723 0.0015927219705071844 0.00648119102646183
0.0037833223200361343 0.0013971540030129179 0.006462708089142818
0.0035477374216244814 0.001690181266913276 0.006573104254639001
0.0031668369464683548 0.001842175527485393 0.0066879598294277785
0.0026854643771003083 0.0016621763360817646 0.006777454996234678
0.0020435717602916375 0.0015495614408403563 0.006955252706946163
0.001958256961597775 0.001791618042974227 0.00702039759668367
0.0015557836018657847 0.001768270011416237 0.007151876821137714
0.0013427688127672765 0.0018452953683444427 0.007176651160866377
0.0016777120303048654 0.001534392776758185 0.007076721709497236
0.001369421718020986 0.0017945123780721823 0.007205575177541994
0.0013508826243361042 0.0016019250340304676 0.007201479371509354
0.006865883934976064 0.0015981748739475297 0.006789303166479744
0.006848210115870598 0.0014270661640502689 0.006596022531778885
0.006130637055932232 0.0011712534373456381 0.006443328832602107
0.006021987289420097 0.0017644421286793302 0.006343551941037963
0.005843550480712792 0.002147531723212409 0.006349278802397487
0.005482560257514865 0.0023336808640779245 0.00639359741338022
0.00521334150521644 0.00241612952690147 0.0064282195751479716
0.005016053989442239 0.0022282580571520087 0.006452478101116114
0.005047455847389906 0.0014800781750170077 0.006371599225497224
0.0032784974158563494 9.22095107335087E-4 0.006409148149998711
0.0011758542857984952 0.0016295708636892186 0.007228175135492774
0.0012134345449587628 0.001460953249504353 0.007223084680675577
0.0010446773771190484 0.0015265293003026356 0.007216105659623161
0.0011176007190463744 0.001256262348978376 0.007194639882823798
0.0010115031419718969 0.0013993585877772404 0.007245531930144016
0.007083197499136382 0.0023286819543248596 0.007008657471587794
0.007007542916842249 0.002322777744785293 0.006991909189957282
0.006985497397635612 0.002032354354557692 0.006879670559460517
0.007181366480061323 0.0019966516929236272 0.006608182690215548
0.006761215337524395 0.00164264058875975 0.006825238995132639
0.0065155294931858836 0.0018672195064751102 0.0062732416152970405
0.0062852970292543685 0.002002133308502676 0.006294274020525684
0.006504070359745524 0.0015493742334885404 0.006604533130972808
0.00598838602362462 0.0013484815842520585 0.006376947600140734
0.005312428013171332 0.0025432498391615307 0.0064070930135058275
0.004846469292443087 0.0025704956672193777 0.006473586561562332
0.004862784018772512 0.0018563408791811024 0.006438581554942755
0.005138034668634137 0.0012737763406776488 0.006348950317077862
0.004786418557462665 0.0015367153068847758 0.006390624387077962
0.00491945070944036 0.001402304399187429 0.00636279393195485
0.004795548925712661 0.0016866088891345913 0.006419059013068145
0.0016622198802440813 0.0019432207444006232 0.007097842870117526
0.0010221017271974243 0.0015103805643115922 0.0071890455487385275
9.117069459262497E-4 0.0010325630425565657 0.007154464287144867
0.0020458887308240433 0.001074963626578099 0.006832576493124801
0.00716806357358501 0.002552704714894863 0.007056600667158012
0.007085505613546294 0.0024339329132146846 0.007058018686902955
0.007241191387716228 0.002569048978956687 0.006973926360070992
0.007087455829207887 0.002546567057788398 0.007057158278487137
0.007171193804908899 0.002348020194195029 0.006913303611394847
0.0069912415799616035 0.0024986614457131262 0.006940097473363364
0.006824710084295822 0.0021007715936671176 0.006830216002267901
0.0068129799953129365 0.0018911577772567072 0.006238512484491112
0.006591794540884098 0.0020923439545190324 0.006245686351846662
0.006600299937927902 0.0017696549508782486 0.006276969888145627
0.006318961245507787 0.0011079137792913418 0.006435032408965142
0.006178615120773155 0.002287651781178372 0.006291677539965613
0.0065968245118861735 0.0014100784723191898 0.006374498762107754
0.005760902266264411 0.0023807746354347356 0.0063510240121644615
0.005294564330782782 0.001543872846100911 0.006379666407240713
0.004427248457184841 0.002531116012751866 0.006538742873815535
0.004301188764487797 0.0027474581020100666 0.006551217981699403
0.003881351726974457 0.002807993641750353 0.006616593201598967
0.00397188925584697 0.0023705381524043822 0.006600950426276356
0.0044286668885753265 0.001905273524351098 0.006483744100452935
0.004180153656409268 0.002046437020328214 0.0065386017370705415
0.0037672283115284953 0.002052745142153743 0.006600355673264499
0.0038047371029914104 0.0019528152898678228 0.0065771667749060184
9.811333583911264E-4 0.0014502058697601892 0.007164085999324147
8.424812934393518E-4 0.0012212531271369445 0.007085225480542101
0.001413558611151469 0.0012265596980979613 0.007099179608724456
6.871668460933093E-4 8.297272237182626E-4 0.007088729639278038
6.671676779801584E-4 9.072081235173718E-4 0.007007052166598743
0.0024131671462798276 6.655484724080289E-4 0.006573579199725402
0.002265860024475234 3.9354445702812277E-4 0.006513894559655469
0.0015681850963472032 8.575995118786143E-4 0.006937645550832748
0.002061815414771805 5.448037408861127E-4 0.006643556220983868
0.007237081357332652 0.0027956016462638215 0.007094686177828752
0.007111293505822229 0.002722803152109904 0.007028281147525907
0.007165078333549699 0.0027126353023899357 0.007091190235529063
0.0072654114635224915 0.0027064423846615508 0.007022269021146852
0.006681908512256446 0.002015674651236077 0.006661050113128839
0.006866079158839429 0.002131594090775041 0.00620572917684775
0.006928850764805439 0.0015560148553340242 0.006323279467105948
0.0068557950768020435 0.0017171297739936875 0.00627729882621998
0.00692797211658013 0.0014961832657723168 0.006353407552698152
0.006633500670742886 0.0012221015401476982 0.0064893491737709865
0.004049716550736 0.0028789808262914694 0.0065795631145517475
0.005654613756226303 9.629395724191368E-4 0.006200896384963371
0.003533782505259476 0.002852115002854973 0.006652248255387697
0.003562855792152843 0.0027520842138268583 0.006668669264428304
0.0038622482636855764 0.002655401010295899 0.006624591537569921
0.005169679916640491 0.0011095716727270205 0.006278532386359001
0.0033631705790222108 0.002062197801466344 0.006677626935708141
0.0026888551823794882 2.2465473874272776E-4 0.006295773287670659
0.0021349445105691076 6.35816549620725E-6 0.0063948818523913865
0.0017448780634736914 4.258582281379742E-4 0.006711690753154203
0.001290655346195 5.875824914233241E-4 0.006938948117736698
0.007274280238640099 0.0029359633732927073 0.0071014779827285445
0.007315554013131308 0.0029149213482087735 0.007051179970007781
0.007214698317426098 0.0028922025498853495 0.00707531804470583
0.007050357922071949 0.002701431458788336 0.006864690436917845
0.006968344308486535 0.002559404223142373 0.006804516462420168
0.0073186815024719205 0.00200874047382156 0.0061622272783373126
0.007331347453585502 0.002189611230653899 0.006127787187716726
0.007223332669145631 0.0018868931303765385 0.006209365150646999
0.007119543752200613 0.0020224374205618538 0.006186712280007423
0.006234689741241241 0.0012731549355997707 0.0063824171636422174
0.0050970983452414825 8.290717091067691E-4 0.0060756259881302975
0.002395426916959336 0.0020737885410058296 0.006906409373935352
7.695663318621678E-4 9.728061899980047E-4 0.006748113312313047
5.846039854945514E-4 4.160935605608222E-4 0.006876522074807972
0.0036845693658775825 -3.792070372444299E-4 0.005709600983937588
6.943379991269149E-4 3.538227314893139E-4 0.007027549077651071
0.002942230091469111 -8.174321080176905E-4 0.005706774828795103
9.43157969365245E-4 -2.0083026223173078E-4 0.0068665924618753
0.007151668983852588 0.00286596842377503 0.006969571612356528
0.006901852062881901 0.0024119003881807747 0.006785913556966968
0.006807399704129865 0.0022657702451709754 0.006689552731135196
0.006865956432792592 0.001422568248684057 0.006423201660303926
0.006598157335117746 0.00189421165274476 0.006500190620588944
0.006037890672913609 0.0010104307233374595 0.0061233069533478636
0.0032150709089605886 0.002827713855628854 0.006687773008516489
0.003956345179915053 -4.426668266640161E-4 0.005610232076649397
0.003970912902692238 -4.678620573799725E-4 0.005589912639895758
0.0031608458947818057 -9.739937691849942E-4 0.005557631091983945
0.0026573767767946277 -4.6394592052684735E-4 0.005984301586947011
0.002214410716506178 -6.081530536392164E-4 0.0060827148917472484
7.127473470363966E-4 -5.889690267952959E-4 0.006927713322419912
6.548965824571592E-4 -7.23319606808322E-4 0.006944165619563912
0.0011817093292519137 -9.859971497485046E-4 0.006512471750692411
0.007346495330515951 0.0031006007227387645 0.00709899808306733
0.0073395316691786325 0.0030571602018778445 0.007090311998599018
0.007309984062331996 0.00306603116610368 0.007071793326755775
0.007225778274821917 0.002989319726725096 0.006974188989981573
0.006320369220683885 0.001314977788963782 0.0061821044245511615
0.005695315473949315 0.0026622298361916596 0.00632998040006748
0.0038490752346715153 0.002932037405518847 0.006587115770421586
0.0019711578398511603 0.0021896095603002913 0.0069883766317575344
0.0040435354620406505 -6.076691724628984E-4 0.005489923223646632
0.0037869493616022164 -5.834298227679219E-4 0.005555551084487254
0.0036924080195321857 -9.435652075578968E-4 0.005406891431970844
0.002847644443728819 -0.00103318535740466 0.005624045964541824
0.001709300109373286 -6.824942885554658E-4 0.006279769922487829
6.44238166467677E-4 -8.63511066640962E-4 0.006937984933050838
8.248699292836302E-4 -0.0010144061154553562 0.006786087716113675
6.849353445211635E-4 -0.0010683788572866896 0.006905801303427719
0.007347106675541966 0.0031372810834775704 0.00707299260988893
0.007348261459266084 0.0031179202523369262 0.007095434817716683
0.007137542951997501 0.0028698609222550615 0.006763478427581577
0.007392425906537265 0.00212393314358971 0.0061311169358989745
0.006726031568303812 0.002155354060940205 0.00648355893417068
0.006513024254067055 0.0016634496892018171 0.0062457991007989185
0.00456423003239849 0.0029120264334811592 0.006472135264975346
0.001725022439814327 0.0021572545901602054 0.007022429023601832
0.004207331136271814 -8.226604987813829E-4 0.005332726116273523
0.0038879796643436003 -6.203454723509656E-4 0.005511668382443642
0.003747357780437175 -6.492685232310617E-4 0.005534334045172611
5.930283856620036E-4 -4.8075032606306983E-4 0.006848231474253065
5.830423996340834E-4 -0.001208254604743543 0.006663189428460571
6.411867737884436E-4 -0.0010867174886198482 0.006858572395362876
7.557429390684817E-4 -0.0013304576387289182 0.006767795050332435
7.586074431874934E-4 -0.0016092490469255313 0.00663510755473898
0.007345454784202474 0.003145187396561037 0.007004396627916076
0.00735639083527095 0.003048705016262852 0.007026737679024512
0.007330768350095788 0.0031441176471128924 0.007028263894412802
0.007346742484286066 0.0028985684005846672 0.006984228975912907
0.007415266618334383 0.0025526231207315905 0.006040569755129605
0.006974278567793529 0.002258971102791613 0.006176508040735033
0.0065398226235787085 0.0025754434600737627 0.0062008897151828
0.006630375744402725 0.0019508210909745288 0.006280901319870879
0.005499230927986147 0.0033033701090389015 0.0062465106183268015
0.0031794158095907795 0.002949446597574457 0.006606501818712396
0.0042670140021027515 -5.884564992193243E-4 0.005464446917493776
0.004274284637317451 -7.432834835227982E-4 0.005370752165605383
0.004098651235511012 -8.807187406499236E-4 0.005321448642205738
4.7612388601105327E-4 -7.945649868687426E-4 0.00655757593576523
4.6585479063046727E-4 -0.0012448555721145706 0.006310039919520575
0.0014755698402665227 -0.001513378673519253 0.00607704083397547
6.001348891727183E-4 -0.0015699621774629673 0.006480276014669016
7.086369398490716E-4 -0.001730096468431174 0.006551281519121029
0.001166906070876671 -0.0015543903678807629 0.006310045614415519
8.258299839961917E-4 -0.001971058158191887 0.006473212704398556
0.007381706044918403 0.0030375575801548736 0.006896321288415923
0.007359667504076687 0.0031321303137895736 0.006898666671634826
0.007283299969540575 0.0030793286592979627 0.006853085881405199
0.007577106875076283 0.0025595510067755816 0.005942310962809305
0.007246068182569745 0.002784578431587111 0.006049374652904574
0.006454313190159569 0.0032534298527696344 0.006103992123738314
0.007139495676058523 0.002441497988971754 0.006123039212591883
0.0060735966710465964 0.0037296195323457413 0.006031968812572877
0.0034494474348182712 0.003668340535970833 0.006365807469268116
0.004058400125281596 0.0034438959543107725 0.006390588154677058
0.006225540972599421 9.40178566645251E-4 0.0057375688738148575
0.002708912739310021 0.0032437077303032235 0.006326207722438611
0.0025300960695677555 0.0029916758503621146 0.0065542554310340185
0.004532533435102609 4.128848639917499E-4 0.0059131313046825226
0.002937494280766712 0.002548020809283848 0.006765100822990829
0.001971982237895889 0.0022788252601620195 0.006963352806397927
0.0044863280599171385 -8.499172702578172E-4 0.005280077771875168
0.004385786273671356 -0.0010049864383785002 0.0052050293837537865
0.004255268507554196 -0.0010374460192346235 0.005205360456440582
0.003910052372501424 -8.375157718343169E-4 0.005389913941532473
0.003437600048076577 -0.0014564270424614015 0.005238865116630337
0.0020442426522240343 -0.0013391344340266918 0.005800346174043368
8.133568744201253E-4 -0.002065868293744834 0.00638763639352719
9.036687661659453E-4 -0.002028600897912554 0.006404230741609106
0.007388457919959942 0.003134251650004729 0.006816356625957519
0.0075419539587094145 0.0028891502294052115 0.005925585338869047
0.007193540299081965 0.001806769733180648 0.006294642708711873
0.007503014870985086 0.0021556278601176882 0.006097736000203993
0.007294917753969329 0.003067959250436447 0.005964100640932219
0.006864923334290166 0.003387702787265914 0.005989436939287288
0.006953452289581402 0.002904435973203113 0.006084268095493192
0.005470778456355347 0.00391245016405176 0.006086033786955542
0.004957960734349361 0.004189998700317227 0.006085187017105415
0.004473965193353488 0.004352272834461535 0.006067108407333497
0.003947645218178672 0.004218454182547198 0.006009337390598202
0.004835557366870996 0.003799902949476817 0.006240387063725608
0.004096563805766785 0.003980152271230323 0.006234231920464145
0.0033582358271632374 0.0038292935334799274 0.0062162230175117714
0.0028709357545736716 0.003533619538015197 0.006415797351080107
0.003042947715786484 0.003635302937520388 0.006388776744806051
0.0064907569774196976 0.001336627944839621 0.005687162972032274
0.0057315817950318974 3.1904496808732134E-4 0.005519836819489712
0.002209228173964028 0.0028989554409527872 0.006485383474016844
0.0013534678639134706 0.0018475254401518076 0.007034332628153189
0.00503458990627315 -6.001842136735618E-4 0.005268440460486728
0.004745589025972865 -8.583349882015458E-4 0.005230055605117205
4.7364068660115765E-4 -0.0016731480053116014 0.006040857591330324
0.0020000250246287837 -0.001977719174018399 0.0055014494188852245
5.884138324185981E-4 -0.001756861702314463 0.006262511864340095
9.97104966179432E-4 -0.0018671778177077082 0.006344010437304022
7.138499526179407E-4 -0.0019290397585448372 0.006372718629225942
0.0074022555745322394 0.0030384237349483406 0.006792420644972646
0.007332165942706189 0.0031155791987747673 0.006609980489115246
0.007346308800233071 0.0026963186386293834 0.006785798296458014
0.0071464586345391014 0.002838477726284229 0.006242782711787596
0.007634728932066343 0.0028783553424798704 0.005889015564102979
0.007599108466670475 0.0030374690283752454 0.005863123968655084
0.006432224279142473 0.0038078495327378394 0.005933774583340457
0.0071451424870272754 0.0030322223896489275 0.006025270395045576
0.0065022009031485304 0.003565703380408333 0.006025261015771556
0.006935624189646127 0.0025070124005989397 0.006502691593131974
0.004949441790491904 0.004477573300661896 0.005957574210030316
0.0036878410036812483 0.0040356837881580935 0.006112112667805345
0.003031356285336813 0.003690282309742342 0.006286851156234208
0.0028938650891150194 0.003576844805327459 0.006337538423580889
0.002328284169333194 0.002642698755687375 0.006761553412883543
0.0020478780005041258 0.002612314873487977 0.0067525844431605845
0.0020477145362217974 0.0023923805859833547 0.006886022248514719
0.0018129567130433547 0.0023631909343022964 0.0067781456760920055
0.005152510052125237 -0.0011602811730982256 0.004991150979492916
0.004743939065351135 -0.0011776200424294212 0.005047804590511301
4.83881426388428E-4 -0.0019086947463959323 0.005798039158714053
5.979404164295095E-4 -0.0020064320914717957 0.005999001257414203
7.263861502399075E-4 -0.002136283244718195 0.006133468026085511
8.490106644420817E-4 -0.002281304194321381 0.006174034840111665
0.007415212280032726 0.003099598076322639 0.006677364157091054
0.007399124552422949 0.003147016304557655 0.006713301353276725
0.0075944518395294905 0.003089218458852079 0.00579045734233555
0.007069478721286735 0.0035302328077346933 0.005868198102638052
0.00666215245272371 0.0038382877811272012 0.0058486046966794445
0.005067436668130345 0.004565192526303783 0.005796281176559601
0.004607759642092161 0.004518080286154359 0.0059810726651160235
0.006617494955128258 0.001769231891902013 0.005920319389836349
0.0023409481416042026 0.0030391868034488974 0.005726079409573381
0.002022863923088247 0.002750162068460508 0.005835973132956468
0.006410712423423948 9.787813414064643E-4 0.005490412951869098
0.0018606881268754714 0.0025882234274982657 0.006061141218672981
0.0021001510227994665 0.0028575503812485192 0.006355827869057706
0.0021038529225620994 0.0026359325706228546 0.006621055459366183
0.002249953276253831 -0.001791753185156229 0.005458039757730636
0.0010064689441686486 -0.002252392250125051 0.006187306116552389