# vtk DataFile Version 3.0
vtk output
ASCII
DATASET POLYDATA
POINTS 1480 float
-53.18495248345972 -14.986461922800055 -27.3204644429171
-51.805811735704374 -15.30676105610101 -27.24491052903314
-50.642808819356254 -14.240608149537652 -28.053363786263514
-50.62692477697112 -13.565772846592951 -28.559635189911955
-52.13519552161193 -13.83822576165569 -28.003133711236167
-49.88643180208575 -12.588180435631145 -29.150853186184634
-50.62055891018806 -12.90564453434521 -28.866616008471006
-49.584097923344615 -12.291016717152601 -29.212818845218443
-51.73930947758973 -12.20788005710975 -28.513099774571163
-50.2608560257895 -11.929731702912893 -29.238194701086247
-50.05254558368668 -11.020126085526822 -29.376846235582533
-50.96645676411363 -10.940627222402242 -28.93287194682092
-50.306577141736796 -10.385152715396408 -29.23502792395511
-54.69038009339081 -17.30442448463161 -26.059303260161258
-55.16289914600815 -16.701191915404213 -26.528322019847487
-53.8287334959459 -16.06937028225529 -26.69468080881574
-55.344311328037925 -15.97426047706401 -26.450674136794802
-54.90467224490872 -14.51035032220029 -26.406156655254044
-53.55024851511361 -12.656191117082567 -27.29978304360117
-49.10583099571682 -11.430387806388001 -29.19538550894594
-52.8762935897294 -10.827565758833574 -27.460579613878103
-49.66426433097177 -10.353923510976266 -29.28609432171212
-48.334981030971775 -9.701481088760174 -29.11671876310208
-49.55037227833223 -8.438778603665815 -29.024669871701757
-49.03922532825083 -8.603576001496958 -29.129984454422676
-55.84622867938907 -17.70395012567827 -25.434354549094074
-56.0547780086566 -18.102658878480035 -24.824276949092226
-55.61619631348326 -17.27615435983932 -26.16995052620407
-55.478310055611466 -17.07597953767925 -26.390337517471725
-56.235729150701694 -16.698132487948172 -25.71024054876024
-56.32904225556789 -15.568093996313193 -25.626606342693808
-50.524249791550545 -9.182478647080131 -28.552689477079998
-47.6755629282759 -8.151248268769207 -29.21909852801561
-43.54748882672446 -5.005590954050369 -29.24230346991924
-47.6813059574135 -4.421620100580844 -28.255273447511694
-43.60216311611471 -3.6963236276522013 -29.48730811564327
-44.541344637973324 -3.6158137287366423 -29.266080180625156
-45.08739858346034 -2.4583728500403863 -29.06134407893348
-42.6732701254404 -2.4491464876119484 -29.49165320060412
-40.79589083557334 -1.6233422452875916 -29.73178107680877
-40.32462291199398 0.29617258201219065 -29.91532290734115
-39.178828316934975 2.4283644040638843 -30.53100573429826
-37.729473205945204 2.0750129818519873 -30.520531259870772
-36.62623209405581 3.3063157103343648 -30.86799408056448
-34.605400759893634 3.8473992375839363 -30.445694934752428
-38.03157206532506 3.545294128654056 -30.827548229027688
-35.57236396901402 3.8308011553751316 -30.83238138622965
-36.45813469695576 4.358118652699099 -31.01911298787032
-55.105540523150204 -18.515798546255148 -24.260012626650404
-51.511132006010655 -17.22393407610358 -25.16231288600867
-55.92018928865849 -11.744226613782685 -25.041271878197808
-42.32026784253197 -11.430743732618106 -27.013475993600206
-38.81739030001988 -10.67014068839677 -26.62878803375141
-37.52438545838898 -9.57778791693939 -26.839477485015575
-37.057053541229465 -8.845245028427435 -27.019122609720757
-38.69183099631169 -8.133923112450182 -27.641689687066986
-46.638235678851586 -7.560480034207266 -29.240180962870504
-45.33221135221068 0.7209337505662312 -28.558913643774215
-34.88759607287413 4.921249080578916 -30.72161919917192
-36.13570925518378 5.19658508926597 -31.002369277460243
-33.760777191463085 5.751538190502559 -30.36962545069854
-35.67374144894205 6.205335584431939 -30.74914907041244
-34.4847045401111 6.167115096040817 -30.681936466029182
-58.60185754673185 -21.72168684705886 -20.98741194319922
-59.40839546129981 -20.887596194054918 -21.181461358376318
-57.247355474066175 -20.160271800963077 -22.010685498877777
-53.029840155998315 -20.702264423987046 -20.757267517659326
-57.03703327716878 -17.866561439500334 -24.044308788928777
-40.59810158811744 -12.912793693506183 -25.84969997286213
-39.67376308495409 -12.0917782443116 -26.101592737898343
-58.54651800287157 -14.891012019843181 -22.980334430576704
-46.77875043468952 -11.472056147455936 -28.341639742176838
-36.15265356339111 -9.464380613694102 -26.367066743420953
-36.064700227965716 -8.067476001437848 -26.944673551352654
-42.461685485944095 -7.332246957490911 -28.696509678783542
-49.00129350558494 -7.506592014276121 -28.844299449185655
-45.876899588854826 -6.570702455290088 -29.1274406497422
-47.3994267345309 -6.849384026461892 -29.101485915035163
-44.358479061300116 -6.896261960846196 -29.12769078324105
-35.43987896684375 2.6405950321694798 -30.297972271401967
-33.20963418686734 5.936815428048134 -30.11826575939667
-33.77219028795799 7.791289520415463 -30.200580729376412
-40.623423226427086 3.786555433809577 -30.13801724754846
-59.223450980584325 -22.887884155825343 -19.940749851042046
-59.41243140679561 -21.93664687524794 -20.828833985136907
-58.35953763433076 -23.557837552186484 -18.870940113585004
-60.125595371481815 -21.976189602846794 -20.397287687761693
-57.39076329589863 -22.355776839984376 -19.99773295248938
-60.848178288360785 -20.635590494976057 -20.173936387125273
-59.70188937506279 -18.588919752754038 -21.49214917340237
-40.59415393364629 -14.169813459552595 -24.938053114758425
-39.06102919003233 -13.29894862911024 -25.111654698969797
-41.60691307009257 -13.413447808548668 -25.731859087366228
-49.20285264715136 -13.139388191563839 -28.49222272009024
-37.839773372523595 -11.994082581773625 -25.538605901306383
-46.310158390288834 -14.357200944665243 -26.446456037153784
-37.16058242471596 -10.607138286832322 -26.17145919571244
-45.54991783040296 -8.649199463570918 -28.880751132532122
-36.34373499218258 -6.689121336106285 -27.57036813099185
-34.77398396447641 -6.753370959306825 -27.005639493441098
-34.12006453850544 -5.615370758476045 -27.209588882652017
-37.36043674463823 -5.109616336153873 -28.297245936969603
-42.21453125581272 -5.871858759281996 -29.109141769697285
-40.66359619989078 -5.256938888065635 -29.008627677840188
-40.45028475742155 -3.9510284233240753 -29.382982948820104
-41.33885566487442 -3.878474065919594 -29.425933816114664
-32.838829607082864 6.279272293564446 -29.96625899188658
-31.923076821584157 7.477391419412579 -29.616838400520837
-37.59778910740779 5.271834036215218 -30.776567849803033
-31.860468293798164 9.273145079570254 -29.730039248480853
-30.966029431802994 9.096136271961374 -29.31053155649157
-43.42911614243908 3.900710763213994 -29.356985627187004
-43.51614534413794 5.190508168186243 -29.16629466179034
-38.98553203430629 5.928806492036544 -30.329839232212926
-42.21460995518525 5.310383801099104 -29.57748969665249
-60.01686911241354 -23.841426535665814 -18.918078334312423
-61.01713657070683 -22.19460291902757 -19.482577572169834
-60.33404628053459 -22.96330974387736 -19.6436689589629
-59.042448694927224 -24.02003892564175 -18.50557445055866
-60.786034769731934 -16.686283856707977 -20.70962941095313
-39.07814367918551 -14.476129784573816 -24.20613233721212
-45.444047695477636 -15.924758195671476 -24.764702951072156
-43.115230169214854 -14.998461974675585 -24.83883030852742
-46.413020856368604 -16.172991307110127 -24.87145363246469
-49.54735056854318 -15.135012508712345 -26.959150209267246
-33.689774008216055 -6.390326330405745 -26.688280874446853
-54.31022225952968 -8.120644368265202 -25.243100421599717
-33.25820887069363 -4.923407436130787 -27.004482637178572
-34.11179987621091 -4.604212301938619 -27.52602379985108
-35.097013788909265 -5.242059887074913 -27.661782107255565
-50.90876240062286 -6.839805321952198 -27.405195728023102
-39.39312233317604 -2.7078423726022467 -29.348230603813114
-45.310583511645156 4.715918941466916 -28.297901112300185
-43.00385238705357 7.051352541650432 -28.5902518664239
-40.39122889629556 6.828746450178522 -29.59820729976447
-37.31579775470033 7.88635460720366 -30.01725241400229
-60.448590786972765 -24.308835937828214 -18.272477873904343
-59.766115358907875 -24.70853863006737 -17.6756261413798
-60.897309337835466 -23.528458414663042 -18.653118523640345
-61.743526830374755 -21.182293093666395 -18.698500586087032
-61.75037040643165 -20.108215705257727 -19.096204684178247
-41.179444626323324 -16.776932838780784 -22.741446313369767
-40.182375427554014 -16.835643150654004 -22.34068073977324
-42.479966404611275 -16.674951741759255 -23.145213134013176
-40.42060469094399 -15.68448381193944 -23.560714919195906
-58.40275705303336 -11.82937365269931 -22.68227189132605
-52.73163598848867 -4.902645070962858 -25.307710502339322
-36.864036858583674 0.1697176741460599 -29.713469021593035
-29.820282143499515 8.576062324694835 -28.264740504701216
-30.569968576950554 11.147143396923877 -29.02795052292512
-50.59015609604834 4.471751029523578 -25.84216394493867
-32.40376107105458 10.951634686363425 -29.687636548844665
-47.38930262472069 7.929618869560609 -26.032161205201426
-34.729535650062644 12.087687841841227 -29.405076908592108
-61.54941479938569 -22.573489092291467 -18.39772352849937
-61.38347434775435 -19.336480130654905 -19.693438841583177
-61.45264653851164 -18.09044662265027 -19.70397129136738
-47.94793510153893 -16.22815075919802 -25.325988203109656
-61.32452038786319 -15.287712497726165 -19.98057102713039
-58.247172958364885 -9.251747795799748 -21.955210962651496
-32.8718219180679 -4.11930715705204 -27.034967961032436
-52.30367244061183 4.06620857620488 -25.530589666063076
-52.42155800838665 4.133094107480797 -25.54093656287966
-48.43707526931381 8.034794413161444 -25.47492185381624
-45.83043064433892 7.355442370725079 -27.065338284758266
-43.52510187924746 9.15892071553153 -27.332540406236074
-33.03823298264489 14.37417258980462 -29.50197479610498
-32.558724535381245 15.113740546563777 -29.531793596005535
-36.40633946688 14.276937814325606 -28.34668658047229
-60.56817586935391 -25.18834955258094 -17.207348920546945
-60.38958831478952 -25.088302780123456 -17.323482891593837
[...]
POINT_DATA 1480
FIELD PCA 16
mode_1 3 1480 float
0.006355197928909169 0.0013684304333778168 0.005536421407291489
0.006483166815435391 0.0014039615705244964 0.005513371716408112
0.006367617300072228 0.0014237419643535075 0.005543115177113978
0.006238675509371396 0.0014288843677481484 0.005575861311029324
0.006220078177144862 0.0014082739177400862 0.005562377978677227
0.006087022757100839 0.0015050931416863307 0.0056159896545091275
0.006113357870613856 0.0014668866941830582 0.00560353794701799
0.006043000863561456 0.001549741649960856 0.005628048837391001
0.005957303952770381 0.001505037314500888 0.0056090748282415
0.005938238981035544 0.0015580914234189843 0.005645331977902569
0.005764273624523438 0.0016667188148007644 0.005686143028842915
0.00574000993110286 0.0016336362035323636 0.005664811133402365
0.005638687688085786 0.0017167812483847573 0.005702879853587146
0.006600048285847166 0.0013926252150836447 0.005520078424568805
0.006481606845996802 0.0013377308221804015 0.005545968540067141
0.006481785369961249 0.001371425534883751 0.005521201942520126
0.00640092146982405 0.0013621726817656405 0.005526620922671888
0.006266287068034872 0.00141442900793142 0.005487845761536843
0.006025438261769749 0.0014650785591416653 0.005536285603306139
0.00589220384985488 0.0016756575651351528 0.005665705258883445
0.005766015192838684 0.001562192243897801 0.005563452419778415
0.005651138788932555 0.001752728396729095 0.00571047814283942
0.005558210395436153 0.0018865055822843188 0.005746401060852932
0.005258282947100587 0.0019189408129602762 0.0057899118901914605
0.005297574413515815 0.0019420745242823062 0.005794391777483046
0.006614079569664303 0.001448644090093197 0.005508148688850451
0.006679794458769464 0.0015239148334407122 0.005481294432590743
0.00653791970405959 0.0013586114424750178 0.005543051777642397
0.006511160557631924 0.0013362069306168242 0.00555060049384003
0.006481796371459804 0.0014055535600512364 0.005498956229652947
0.006370520744681461 0.001423022083175449 0.005460265960603044
0.005446361479332494 0.0017776689493291138 0.005703625293841164
0.005215921018555415 0.0020345117470400194 0.005838424845913498
0.004434728648624823 0.002171336078585245 0.006058023679305746
0.004485513092370228 0.0018344687276913051 0.005921508688413362
0.004054664145288379 0.0021248647805074995 0.0061560537202623895
0.004084589411002444 0.0020518104827985245 0.006124446444867257
0.0038636247324562384 0.0018699122360075733 0.006148211948737191
0.0037233460464978422 0.001999338305125793 0.006222435964241163
0.0034033848103271138 0.0019728511690704676 0.006307445234664469
0.0028950020479273594 0.001691323951295267 0.006414071693321741
0.0022320577139447587 0.0014108988541372517 0.006594926884480488
0.0022337979592627678 0.0014928017706129502 0.006573909969284672
0.0018460974110491655 0.0013066995613176453 0.00666197486769162
0.0017643688153563854 0.0012021137367977757 0.006560417299726311
0.0018841541792942254 0.0012417580313313155 0.006672041645696188
0.0017116762855607173 0.0012140751430411729 0.006652245306805788
0.001615726506147998 0.001111716274113659 0.006709205354134751
0.006794900523505015 0.0016058827682148733 0.005435919711735464
0.006840207887488181 0.0015669063102185755 0.005397973365031385
0.0059902413113968 0.0014736859583252473 0.0053578330392280455
0.006336666842504413 0.00211348823679796 0.0055910088527145576
0.00629227959789717 0.0023944358621241658 0.005638234363467748
0.005956180311574619 0.002505371225685288 0.005722031125716319
0.005693334423531371 0.002534518772292111 0.005773369829823539
0.005433137236871871 0.0023917398445871714 0.005824838040996937
0.005093655196365477 0.00210787549020421 0.005882345758269087
0.0032950435696980688 0.0013870624395710693 0.006205980766237249
0.00154058650694403 9.991861361409206E-4 0.006630981513526919
0.0014772031131720328 9.459605517064564E-4 0.006710764601672739
0.001485864753658149 8.293403049019427E-4 0.006535347429013622
0.0014030767277795776 7.372672987209937E-4 0.006643916274593783
0.0013799781446706934 7.519547937816269E-4 0.006611702164326943
0.007091128459919025 0.0021946127434532134 0.005447867137139183
0.007000765790040602 0.0021657821999648626 0.005426556839795039
0.0069636368982092505 0.0019504742194448705 0.005391669230364272
0.007236037845750654 0.0019852540855841124 0.0051914480090793766
0.006662488968222355 0.0016184482517859723 0.00542949712179765
0.006959614533248585 0.0021915694170691695 0.005450234594086381
0.0067384712753479304 0.0023047217620525665 0.005521920062583865
0.006404970680661737 0.0015852914985146546 0.005220311094152566
0.006044714089172206 0.0018307342498265968 0.005638114764942649
0.005827526271341992 0.00264144328573256 0.005730054008508364
0.005357055951044087 0.0025876654892317266 0.005818207334148539
0.005109489689904776 0.0022366609761152495 0.005905411967770714
0.005085011825743929 0.001936281761573805 0.005822943463038551
0.004869751875494686 0.0021130912080600185 0.005932589925714639
0.004933023736182042 0.0020478909485563126 0.005895717960272961
0.004948441543458358 0.0021865631240431376 0.005938093751345244
0.00206600557290779 0.001407394924527592 0.006523551510930819
0.001511912590053335 7.898866585039328E-4 0.006468390543614117
0.0013224592329751782 4.26942117730326E-4 0.0064592945255840155
0.002142272647254162 0.0011111314426475332 0.006560936016582493
0.007206857518233393 0.0024051436047848184 0.005451886127118866
0.007096885237795938 0.002271077786666117 0.005475862286455569
0.0072994520162080615 0.00246059134173778 0.0053521602988567665
0.007107997656112106 0.0023614375728207774 0.005452286095014406
0.007207158882932767 0.0022545703214083453 0.005350022846256189
0.007001532371461531 0.002296540534267339 0.0053194885535169925
0.006786172002506353 0.0019735047255585916 0.005288861451329581
0.007292617720948809 0.002191439886296969 0.005344504380705826
0.0071031544649121665 0.0023822068789586454 0.005420954677258662
0.007011281979730051 0.00209315388316449 0.0054146604922334736
0.006248605210938025 0.0015419627116750893 0.005575049380146164
0.006688974407554362 0.0025318278938295294 0.0055376524700601745
0.00675218841929995 0.001738209398411456 0.005430082473722285
0.006261420242898991 0.0025703981764516755 0.00564816544224473
0.005399131811524679 0.0020856322557696273 0.005815810608135346
0.004929765242205565 0.0024804110343339754 0.0059015550334816005
0.0048625619049308755 0.002597871106056306 0.005884010544063455
0.004476474408334543 0.0025360641464225115 0.0059362937957247305
0.004423078409485108 0.0023278914761801035 0.0060150654758885915
0.0046733331268339 0.002262627733462312 0.0060151313393269215
0.004484952676133251 0.0022728540678676025 0.006051853777875023
0.0040659171880913295 0.002229564767863265 0.0061532994895059255
0.0040629456710831015 0.002196896070371195 0.006155224812924709
0.0015007449088702788 7.261690473569464E-4 0.00641815003506448
0.001425091831970336 5.093755905622264E-4 0.0062833768833304325
0.0016021234493955872 9.063347763656114E-4 0.006676458712383483
0.0012357466684233698 1.669674522092506E-4 0.006262920420492403
0.001306414044164497 2.150313804571406E-4 0.006141592825690334
0.002402720595969452 0.0010198915471923648 0.006457720770759371
0.0022227408588632327 7.950632040819186E-4 0.0064501267697612275
0.0016835306724100134 7.431960387968553E-4 0.006603034566046372
0.0020600437970917 8.058093994832552E-4 0.006508983218938373
0.007308581912790006 0.002640526311298755 0.005452370233853402
0.007155249067556311 0.0025148367919407342 0.005386189911695945
0.007213535401459092 0.0025296288478115197 0.00546362749359675
0.0073372080767441375 0.002585194953035523 0.005379584344912502
0.006643073203227328 0.001889930711820609 0.005087109178372955
0.007411517782058187 0.0024060849095607685 0.00532024436282368
0.007176600505744967 0.001808792772891951 0.0052817219664817285
0.007218043145770945 0.0019951184653592517 0.005311021675241917
0.007125559606446951 0.0017393221821602582 0.005288501916264031
0.0066274103195483325 0.0015136651898963165 0.0054669500549402745
0.004652914588721023 0.00264079617353625 0.005892220101659375
0.005533952676157496 0.0014687991985840219 0.005384405698660495
0.004158080606458118 0.0025085537643092797 0.00596038724453682
0.004159008097231582 0.0024255556771507515 0.005991343064232026
0.004416011651000801 0.0024364391089492453 0.005970518748245251
0.005092028967739681 0.0017281542099436924 0.005688875589162355
0.003687960616618196 0.002103587380073036 0.006215979397523507
0.002613136018325521 7.845466716530931E-4 0.006281192613087916
0.002087572383814677 3.999569482304148E-4 0.00631323159944617
0.0017935797666113436 5.1939167860101E-4 0.0064692125374089995
0.0014700747184576302 3.5664162074000816E-4 0.006488898223471956
0.007367397319732882 0.002781683781358593 0.005437933255455082
0.007417060098327934 0.0027938455137609935 0.005379059464807104
0.00729292711319471 0.0027084156273014183 0.005414975079999284
0.007102002411573541 0.0024743134568325216 0.005186481100691698
0.006998390884919863 0.0023295504992980596 0.005135963226465456
0.007826615542192775 0.0022219677830017364 0.005123728634628621
0.007872828398947734 0.0023930236891773894 0.005118424103194123
0.007657662092043094 0.0021007254256785127 0.005157648696185836
0.007640745628577373 0.002274794268845756 0.005217187593734923
0.006129242439670471 0.001456291268259971 0.00512141770369082
0.0050124079111207665 0.001435343224773216 0.00548792497274622
0.0027841405949437935 0.001768863534232422 0.006381140663770264
0.0015279777341098014 3.245816414062212E-4 0.005867927026423976
0.0012185520044585329 -1.6598621176874788E-4 0.005978081770555237
0.0034843462812115754 6.158700407920272E-4 0.005883470736789531
0.0011558585335759454 -1.7418627750979954E-4 0.006217892698017634
0.002758479800688796 1.0572222492798367E-5 0.005855992966495079
0.0012097004060979664 -4.649283891600669E-4 0.00619661475866712
0.007225757145785442 0.002654398461584379 0.0052894027488172455
0.006909671659055271 0.0022041615866476264 0.0051442185263102375
0.006803843991554746 0.0020779158174804233 0.005051372071022398
0.006984747520537016 0.0016542335455843001 0.005339845518478235
0.006568028602676455 0.0017799101338840026 0.004908549112867323
0.005937443687962268 0.0013064068871579757 0.004991820502146495
0.003849922745472461 0.0024365375183746725 0.005995792408884057
0.0037240805118570453 7.16731896495497E-4 0.005878688072634791
0.0037316723453046517 7.14907376669265E-4 0.005882020647970771
0.002941746257937029 -5.987673117973391E-5 0.005754390190562291
0.0025259620556973123 2.063435161892376E-4 0.006044487493738482
0.00212636695394842 -1.0908714339472713E-4 0.006037621384513606
0.0010208256772211996 -8.829985099195958E-4 0.00610766759337145
9.708253301870081E-4 -0.0010197919472790112 0.006077882199381933
0.0013145761257854279 -9.728186945014364E-4 0.005939774826697428
0.007473578129343134 0.0029760326518605993 0.005407096180713647
0.007460719828730398 0.002933741885686767 0.005402750962397735
0.007428752579455805 0.0029209413002117875 0.005380577219798496
0.007329310980036739 0.0028027365765946697 0.005273752623545584
0.006264215842297061 0.001399900110886228 0.004782892164727975
0.00623546302106212 0.0028046015956165577 0.005620095522518792
0.004475455988519725 0.0026581237214623027 0.005892014626959708
0.002501428782693674 0.0016198016688699155 0.006331797488715688
0.0037764321302434065 6.398214163761543E-4 0.005843935492172919
0.003532362231820041 5.801098571557285E-4 0.005895092439402964
0.003418718904509294 1.51252603268561E-4 0.0056976730197091175
0.0026559742127861565 -2.1464303482964135E-4 0.0057764105094376
0.0017263565093424058 -4.486862624153544E-4 0.0060061993822670395
9.530548234795371E-4 -0.001141317512856744 0.006042307569347281
0.001057627520876815 -0.0011800133988649794 0.005984738836297651
9.525990304193704E-4 -0.0012922564283131387 0.0060069416286985455
0.007481255792514994 0.0030107175038601155 0.005369248724097077
0.007477987999068898 0.0029929638443500716 0.005400813885642644
0.007240286254845591 0.0026568692507446218 0.005032667485424666
0.007848178665618521 0.00227974641554371 0.005065415558698989
0.006737731786455737 0.001964408159770259 0.004811804012141774
0.006497468624459797 0.0015853117216109347 0.004668720741082579
0.005138138464410197 0.002831989227597441 0.0057988713708587445
0.0023069634812646926 0.0014873693870243712 0.006315559488551172
0.0039022160381596413 5.046743763908475E-4 0.005742220607905731
0.0036226102651610395 5.859564320688803E-4 0.005871134094738417
0.003490907656645409 4.90905580554393E-4 0.005859479927583881
0.0010496677579355683 -8.440019441636045E-4 0.005937280893325298
0.001041812535405407 -0.00142048687088689 0.005622540884017076
9.704708712269997E-4 -0.0013227209773969083 0.005906822052384199
0.0010102531991985429 -0.0014748867190076975 0.005858270692649728
0.0010583774946089362 -0.0016974750344227606 0.005642030007920523
0.007488015099475479 0.0030238668906674765 0.005277581166388459
0.00748399289051756 0.002944509972330997 0.00532301440820558
0.007468196699196375 0.0030071806595588727 0.005311995993761437
0.007454561961185315 0.002802240512163421 0.005301387838947074
0.007954069725289703 0.002694212600189111 0.005058633964771798
0.007545482261037141 0.002511568887151338 0.0052731503723873795
0.00710657219829169 0.0028043187327720363 0.00539907886082656
0.006648183585400239 0.0017781537220357046 0.004605075520774566
0.006041685667934539 0.0034356565897261525 0.005607393839089956
0.00384910997510173 0.0025824669532260756 0.005910844367624342
0.004009711128529614 6.266595648491206E-4 0.005714844472162753
0.003983228496246441 5.735406215968997E-4 0.0057388165204823515
0.0037912975291185718 3.988791609703875E-4 0.005717355632396048
0.0011007797137381136 -0.0011032415659350417 0.00552443527786584
0.001141131826856209 -0.0014343548165264269 0.005199137900853849
0.0015331780744853019 -0.0012806614211847776 0.005619183379184841
0.0010967479721688126 -0.0016882497789677082 0.005361138732839623
0.0010865532094695798 -0.0018030655959652441 0.005467482024567497
0.0013042152682212881 -0.0014636103738241632 0.0056527134690838214
0.001127672246645711 -0.001961847700692341 0.005422496856762712
0.007522260322881428 0.0029764954914680876 0.005145409511053717
0.007514099221810692 0.003040118187655209 0.005133317308480172
0.007426070674438512 0.00292689216147573 0.005100472472502428
0.00794148681534765 0.002546671844144474 0.004877920136691607
0.007848605815809286 0.002971687052834325 0.0051535898631854945
0.007032910540557188 0.003456822389271724 0.005395314009087216
0.007722232347228794 0.002660873749654193 0.00520039811961867
0.006602541053351179 0.003920692810778273 0.005458253056514635
0.003959119612417238 0.003639102525139515 0.005848203422289441
0.0046097149471967715 0.0034028278659039195 0.005801435685023834
0.0061881298578234985 0.001092580220175284 0.004409037872317797
0.003375859211924079 0.002969189841802703 0.0057443059761359905
0.003291237903294939 0.002527112881873774 0.005841493689462877
0.004428704538890552 0.0011301371700402673 0.00559199649940046
0.0035135740427215682 0.0021583425535695233 0.006104620439522392
0.0025727265549873053 0.0016496049752855143 0.006254891416229968
0.004186227760514346 4.608086068867511E-4 0.0055834557723920914
0.004061451901343184 3.194684273433826E-4 0.005568291630177727
0.003925223851807498 2.757261546180765E-4 0.005601898284951709
0.0036193050684128598 3.6991427906379426E-4 0.005755848337669111
0.003149182743740178 -4.7440000547355817E-4 0.005457609933162468
0.0019689100840972105 -8.677161804711347E-4 0.00566306123123939
0.0011608837973530273 -0.002032402926945197 0.005289138392055392
0.0011612218165540232 -0.001978068657686084 0.0054146122869855266
0.007554081134361198 0.003084830917344567 0.005010710991333945
0.008054148096493326 0.0029454481385787316 0.004970297589081082
0.007435369442486664 0.0019437615137866391 0.005141846574996446
0.00771733808683509 0.002139783023243159 0.004866906195474969
0.00787168584879964 0.003201785728214816 0.005104929536352533
0.007449261005038661 0.0035705506261843635 0.005260472158582938
0.007558295331829554 0.0031157390962984303 0.0052608191612528886
0.005948444915233791 0.004101166147350351 0.005587726235287964
0.005365767305948448 0.0044281756366410015 0.00568414760387425
0.004808492772907298 0.004673746835465781 0.005763428671635671
0.004260786548576239 0.004509093156865223 0.00575559557970389
0.00531275072528235 0.0039515266614183146 0.00572266503683983
0.004508898287370679 0.004149003468931194 0.005811280056307116
0.0037868905098082817 0.003893534127759338 0.005813258374897878
0.00344107736642764 0.0033673415348593532 0.00586164319533737
0.00356628280382956 0.003542466469520752 0.005868916765776123
0.006524691999098752 0.0012565669703163038 0.004094855305305792
0.0056101732210781675 8.216527457273105E-4 0.004698840401533864
0.0030293763936091265 0.0023900800031899554 0.005763243760687647
0.0019368452229659842 0.0011554708738053976 0.00630713039561389
0.00479442018205551 4.1911901704420965E-4 0.005129574374271817
0.004454871808240934 3.877662640490676E-4 0.005391808929434173
0.0011923225309867585 -0.0017341208939906563 0.004868985388747557
0.0019333329122250133 -0.0014731204901915216 0.005289811265805278
0.0011598159203043623 -0.0018103483438440219 0.005099637861248997
0.0012095343293282586 -0.00180430782153511 0.005486448906394644
0.0011503189634416169 -0.0019399026290858237 0.005234601888813173
0.007550875182000987 0.003014113323899836 0.0049948452420500895
0.007515580681280856 0.0030212764343717116 0.004764292878709565
0.007435033332529797 0.0026196164599027213 0.005118675426031055
0.007322829911262486 0.002616430327880465 0.004404127670282187
0.00810760202988877 0.002885489120913937 0.0049058128783286
0.00810132025646202 0.00305058537475782 0.004930395513655424
0.0069683803122725435 0.003994742117925574 0.005352684514839947
0.007756161545949028 0.003220078648036377 0.005189141480514133
0.00707171603403344 0.0037700721458720676 0.005372116142962491
0.007004725771738786 0.0022684897598940733 0.004778010300527748
0.0052957410393056435 0.0047976057113237654 0.005666923034839772
0.004041795262355439 0.004238936481795593 0.0057919999018927314
0.003513216081524156 0.0036470315433751906 0.0058311194864350685
0.003431716855760612 0.0034524042881991734 0.005831657864003423
0.003068873043651074 0.002048774334150455 0.006004178859021317
0.002852418967817693 0.0019459782249291598 0.005960999515018901
0.0027197319684827024 0.001755656009704543 0.006145353579738933
0.002589635513466189 0.001684193127656594 0.005992014010378755
0.004830475184422153 7.79271864918328E-5 0.0050470337232907895
0.004406815425682696 1.1311143464714019E-4 0.005281338153122005
0.0012474041157027463 -0.0018844521969290672 0.004610924762650434
0.0012292669467568389 -0.0019685842426107446 0.004807539258313824
0.0012264401158634931 -0.002069027419584144 0.004961494503627579
0.0012402107594885684 -0.002169030430831996 0.005045814741840568
0.007581785300573275 0.003099665779472579 0.004816149055396373
0.0075760412881108906 0.003121834404252085 0.004863072833349605
0.008038041607153424 0.0030392856306216036 0.00487859315223617
0.0076175590759086495 0.003637363769178755 0.005146652338361986
0.007185601425274454 0.003978286989091529 0.005255943341565605
0.005403329204422695 0.00487197868077555 0.005570771503378521
0.004914873062087191 0.004891926205886122 0.005735036070199025
0.006670485099856765 0.0015825369472122685 0.004226702290835495
0.002998405037023292 0.0027993406135433663 0.005362204654236515
0.0028185394235665144 0.0023734274176453684 0.005343887236329388
0.006426117070668888 9.930749849905009E-4 0.003988527245330728
0.002743583674964057 0.002113749695588851 0.0054229945707231705
0.002940026389323327 0.0023734671541517432 0.005662779610830113
0.0029257808369610853 0.0020376011413717793 0.005847326126913482
0.0021209741349023227 -0.001187775608208036 0.0054022588364626605
0.0012531348667589968 -0.0021106374928710914 0.005228443429791532