# vtk DataFile Version 3.0
vtk output
ASCII
DATASET POLYDATA
POINTS 1480 float
-54.25552524467812 -12.539623149248 -25.48807397613469
-53.05189305901421 -12.74065234091214 -25.357729918361603
-51.971899129088854 -11.694960853759344 -26.06877168632976
-51.91725808011824 -11.082583567512339 -26.556432776979246
-53.25765865290455 -11.443109242810666 -26.10701331283688
-51.185011494113375 -10.181301010758958 -27.12975217504319
-51.85866405396067 -10.505038690273274 -26.878443551663363
-50.886440529184654 -9.9199290120015 -27.203559624695306
-52.77895305973342 -10.005789504952853 -26.655931809475348
-51.450558734443376 -9.649696166388852 -27.282912094758128
-51.16983152548339 -8.883601432523626 -27.492561533680192
-51.9732573034284 -8.885645050258372 -27.124255876477292
-51.32800999168128 -8.380328560856848 -27.43841575834498
-55.68639889350464 -14.767440214547824 -24.40547397690495
-56.095730316489856 -14.217223609425636 -24.831361340475087
-54.87683776950879 -13.56949069114036 -24.93404872348918
-56.20800552512788 -13.604874659910095 -24.776063963117572
-55.71963739285408 -12.319069743226516 -24.754635734054727
-54.405872356481964 -10.572247746218027 -25.589499247369773
-50.36717724435986 -9.201131985915225 -27.26123179757761
-53.662185419644324 -8.974471058529696 -25.84021666569297
-50.75019883841979 -8.331459250563245 -27.47302472861586
-49.48424409654499 -7.774466339876355 -27.365351844261546
-50.429960754784965 -6.77756773565141 -27.469295972143488
-49.98800044839178 -6.895770350099904 -27.53496968332118
-56.69845194386656 -15.270003687940834 -23.916942172698867
-56.86895084442979 -15.709491653478448 -23.40448554117747
-56.51434242040844 -14.788962147310666 -24.53724839949548
-56.39268834968604 -14.578447977216685 -24.721545064313926
-57.010647332982934 -14.37332147217299 -24.15628762612783
-57.02638101560777 -13.39700582662578 -24.08444810499448
-51.399178381169854 -7.439699761751975 -26.951665918961957
-48.71106373000208 -6.487090821373737 -27.646106564913957
-44.59027656444759 -3.805959112893257 -27.98273847008942
-48.359847964576154 -3.349996675934943 -27.214311333084222
-44.46230812078933 -2.69096031168424 -28.436884542105876
-45.330642617231454 -2.626209586115707 -28.25791814055511
-45.73356713788944 -1.5912541157414044 -28.230284118374648
-43.46015507078115 -1.5755684448513034 -28.5702338122085
-41.586164352437514 -0.8386199505067036 -28.84714103938008
-40.90950853369436 0.917059152896111 -29.28014318895406
-39.54414381605821 2.884340572154107 -30.174037193356174
-38.16652671285634 2.53081478345119 -30.026083889096217
-36.93464322853736 3.6691230701119073 -30.49274256748144
-34.92738308518857 4.169812282213953 -29.942080787310903
-38.29747387429996 3.925758525661375 -30.565679686963733
-35.850168423745835 4.155957115134388 -30.439486015635385
-36.66362324812702 4.680221383331277 -30.766340414533087
-56.01176448274975 -16.079507864242213 -22.887064073488965
-52.8286416177785 -14.573460323535928 -23.472679163660448
-56.420146599171936 -10.090769616876113 -23.656453564477108
-44.392944790606336 -9.06429689006729 -24.92032184709252
-41.28352853281261 -8.334776182676194 -24.364553324261255
-39.9796917682605 -7.450086174702983 -24.598712603993583
-39.42784914405485 -6.874280509436092 -24.83107233350143
-40.72135226747258 -6.32830915131168 -25.66454417660994
-47.709041312028276 -5.9793501102089 -27.720503601124637
-45.71973625833436 1.302650279088628 -28.139968375952837
-35.0907722889754 5.21415446289516 -30.378266949370584
-36.28025443887607 5.496927845173013 -30.80860184468236
-33.940930275698705 6.024632487435401 -29.97534638456947
-35.77362102542728 6.490890154280782 -30.575500831997672
-34.59939303356975 6.4354852811335315 -30.41345085588259
-59.03850057136991 -19.675015559542352 -20.400905535109533
-59.74419764662104 -18.950797466254933 -20.555048171600188
-57.84498219253706 -18.003756917842573 -21.117059716938567
-54.063957295096266 -18.269233785486946 -19.806312691757483
-57.68751335764779 -15.66636393202213 -22.76982887628656
-43.144471294100484 -10.16871725217182 -23.511291388296303
-42.24741196234175 -9.474611321137795 -23.7607985819785
-58.864153987001906 -13.214903989179142 -21.81757558317133
-48.29736250634332 -9.210410798717605 -26.39772279975753
-38.72196589508816 -7.33353115752417 -24.075479107921897
-38.36733528786328 -6.252963142950557 -24.799765083519226
-43.93611890595927 -5.727217256171664 -27.059857501955577
-49.843886694227685 -5.990339814362626 -27.406662734512974
-46.91048009572108 -5.1440221203301935 -27.72617630963125
-48.321140071177666 -5.40028514572479 -27.704625041889898
-45.572998091858814 -5.3965759872179495 -27.62904848811824
-35.88717515629843 3.0390788286619914 -29.69390731613968
-33.401694612799105 6.2058421021302514 -29.669061377159007
-33.83017306956603 8.050935258527318 -29.94842711899227
-40.86146685554914 4.201322010919715 -29.98054615173084
-59.562157735300374 -20.942031915285206 -19.614822531465784
-59.7586263487088 -19.961452089929363 -20.323298138773925
-58.73990961875165 -21.6264075133743 -18.684093180386448
-60.37120566026172 -20.116780530285975 -19.991457326382474
-57.91811224978137 -20.283084636633614 -19.51707350508072
-60.966201764783115 -18.966365612552146 -19.728928555394003
-59.94903198458314 -16.828780576191527 -20.69574632789756
-43.27091456632896 -11.196110102023095 -22.558912517027576
-41.876608482230075 -10.402810262335784 -22.673089201000778
-44.03936442111892 -10.641727285515222 -23.453720420334587
-50.613548768403675 -10.665160788899984 -26.47557497610115
-40.63648476471599 -9.330624843077 -23.1241757707388
-48.13838535225176 -11.674112219684703 -24.404145779549435
-39.83223146402266 -8.237366158641453 -23.817527125594992
-46.87187660435194 -6.855670634303768 -27.192882939873005
-38.34510324769998 -5.163177211308183 -25.61191110375107
-36.92653408389255 -5.212223737174166 -24.938757657224876
-36.09350474354257 -4.305726430602408 -25.23462835080374
-38.9642009606336 -3.8471387979630194 -26.63936140265638
-43.495391617959754 -4.527646855581219 -27.6618361950472
-41.995902452843445 -3.992586203966427 -27.561007112556936
-41.58670704791944 -2.8954642619065614 -28.124898954284216
-42.39784561891083 -2.834525181665624 -28.227312702845918
-33.01786901421297 6.540820259278553 -29.50492769396669
-32.04031131896247 7.714780194542971 -29.167163227909164
-37.740639824136856 5.601373502015816 -30.65363964177409
-31.855072295629714 9.499052548278105 -29.423276773750263
-30.993552896676707 9.30556972303165 -28.90439473379597
-43.62197721807836 4.302595369067165 -29.32233188467567
-43.64171514922929 5.535529409690527 -29.263010822159124
-39.100361447749094 6.268570136904068 -30.30358575745647
-42.346606895412336 5.664464247045814 -29.639980677803504
-60.2333952972444 -22.036461213491805 -18.855615230090912
-61.121700547186954 -20.51833849639836 -19.262330732298096
-60.53977701328622 -21.151310490337455 -19.429974925311075
-59.338860954945275 -22.166565633293313 -18.447943979743908
-60.819441544059636 -15.247687026596218 -19.930987345372987
-42.013028478139894 -11.350076198586052 -21.740368078516447
-47.47062470350993 -13.026969042473885 -22.745751032317912
-45.43354563902264 -12.079414677749785 -22.666395840647613
-48.31931013084637 -13.297020355714634 -22.903611053584573
-51.040930679803 -12.482459390398374 -25.00339112586904
-35.84716967020292 -4.912919502810698 -24.6030900910996
-54.763908855886896 -6.845630876954196 -24.018026273763756
-35.14043643865275 -3.70441697832978 -25.08278745970678
-35.88097955662481 -3.454697562610705 -25.691857259701237
-36.91934751447746 -3.9797980495161838 -25.81036031447229
-51.542367229088015 -5.533652380737818 -26.14941945145477
-40.430037072213636 -1.7922884131981085 -28.201057215994727
-45.45815892064507 5.054015538818334 -28.343630542855315
-43.0818998200538 7.349539841042482 -28.732266508196282
-40.48131308336755 7.155378675999746 -29.653900478900113
-37.36336859959703 8.185762853533522 -29.989136864538875
-60.59195042333323 -22.60005708983642 -18.363645128417485
-59.95192117378318 -22.988937280866185 -17.835375728080308
-60.999056622565845 -21.862380176775524 -18.65131804373654
-61.70489805476576 -19.738707652384083 -18.522457137545466
-61.704856534342085 -18.68429160635959 -18.777440146032635
-43.92635099802609 -13.423538717475882 -20.468249020122688
-43.08323690962244 -13.391932616256588 -20.03150312752283
-45.0030004643815 -13.464239954562405 -20.975474641146484
-43.23594707424313 -12.438294217405684 -21.19100699825902
-58.60656170983017 -10.483832416860134 -21.544638126581404
-53.11143886211468 -3.990606823589412 -24.36627092593721
-37.61522305928278 0.7808882163396603 -28.833899686522496
-29.96517972247033 8.789667577781916 -27.67883761192295
-30.519760047988182 11.35992897344771 -28.71400680496054
-50.68169283458561 4.665874595709079 -25.934404398492642
-32.339422633218334 11.208464417542084 -29.511496714431324
-47.4485636859189 8.105126905955768 -26.22316133867027
-34.655743769659544 12.390024941464844 -29.39600069439096
-61.546875302439275 -21.06291732752695 -18.376243271661476
-61.384250186777976 -17.864478405458854 -19.227369448061204
-61.4109661058586 -16.711205942616743 -19.148428692714017
-49.669706925536616 -13.424522446237619 -23.40968630741249
-61.238061425539556 -14.069662222737135 -19.214702203523235
-58.365106564296255 -8.227854322750161 -20.938787320092523
-34.60756926430701 -3.0099770670087236 -25.211724014541876
-52.36537367248617 4.1983923674684 -25.6916514664009
-52.48203067338734 4.257369002499978 -25.718230614850253
-48.49321064822214 8.178895379057387 -25.660383573674046
-45.9012172448051 7.5875327218155775 -27.23262794674244
-43.56765050625177 9.397509185515677 -27.508598602509167
-32.88959311447825 14.710588324693644 -29.52334276369092
-32.389194414935105 15.464410565444792 -29.562507988469175
-36.32678296781966 14.592727026055016 -28.430150906471333
-60.6530765716325 -23.57927591805991 -17.527499219191107
-60.497849974859115 -23.452298786137593 -17.606499819770015
[...]
POINT_DATA 1480
FIELD PCA 16
mode_1 3 1480 float
0.003045517299536542 0.0036833996804531348 0.004236382222000313
0.002838190205963184 0.0038852888786704235 0.004131678630630216
0.0027122655572379005 0.0037355741050637795 0.004125084290842152
0.002736872206076416 0.003564794789701534 0.004180674331690906
0.00296466857591781 0.0034943402788301697 0.004200311695571039
0.0027055933288890476 0.003392438120407784 0.004170444370812904
0.0027896584905026172 0.0034001712792722212 0.004191787793281157
0.0026990624658763977 0.0033553274513619872 0.004137916830360788
0.00305306530235228 0.0031315318789174643 0.004137467679812486
0.0028334133902350803 0.00319619505917045 0.0041631574324552615
0.0029126688777146295 0.0030022751414652284 0.004101696520185462
0.0030669898801389548 0.002898589195406692 0.004061727249875307
0.003027449909230483 0.0028294489140286987 0.0040341009287352715
0.0031426377273412985 0.004113076557246574 0.004290776898259973
0.0032084173988154237 0.003933787741365258 0.004383429742146736
0.0030839995465655307 0.003892194185578429 0.0042480479407521745
0.003321028371898058 0.003752508770268396 0.004314502600908576
0.003420439659817209 0.0034392048788370617 0.0041275554954994945
0.00334533938403706 0.0030947149428332244 0.004046272954373312
0.0027467459540496367 0.0032159936809095803 0.004037511826355017
0.003417416868713819 0.0027138118891341365 0.003858670984532436
0.0029430240035181092 0.002894141475859872 0.004003360218467001
0.0028474436526588235 0.0029061295973664236 0.0038480625091966386
0.003136572289850367 0.002461810382106292 0.00378846398803953
0.0030529380248311283 0.002558215894907101 0.003798549976250221
0.003332295730146402 0.00412272425726952 0.004283678243448062
0.0033984296764978964 0.004203142505075341 0.004198742186209687
0.0032501834308748955 0.004035393620350753 0.004392825814618425
0.0032251236512754735 0.003997413317087422 0.004413513921578923
0.003448123534519081 0.003860691198325809 0.004286790183750795
0.0035877951357097667 0.003589863650746692 0.004170354640940591
0.0032012959958441643 0.002541730682059034 0.0038005700616981063
0.002903643356917469 0.00260780632627063 0.0037243182111580406
0.002498702620697384 0.0023073467210061945 0.003473389422680858
0.0029946406296853076 0.0017220334497764396 0.003247899885257216
0.002517466813743697 0.0019536416729422842 0.0034493900011997388
0.0026239601844512883 0.001837555979544169 0.003394965186351415
0.0026280214248200055 0.0015031997820843274 0.0032561837761636895
0.002351922884125879 0.001743466836773981 0.0033881071870837986
0.002103429778792544 0.0017206431368222777 0.003445804641544383
0.0019246463710929722 0.0012645891979994291 0.003390796184867564
0.0016424385969354856 7.901805751214629E-4 0.003447185246227086
0.0015383629964179559 0.0010140987918277977 0.003551980154441974
0.0013373496515333859 7.710619184518284E-4 0.0036209857934797847
0.0011440431577712312 8.491110998986391E-4 0.0036230197022501485
0.0014404185186142374 5.892592961448635E-4 0.003508688824676411
0.001207460487123433 7.349650524636115E-4 0.0036471399436409486
0.001230567967824721 5.081546505479419E-4 0.0035991431857159244
0.0033119622914286116 0.004350984457921484 0.004032817982985602
0.002853367118975293 0.00437838861825498 0.0038149105028121174
0.003925023886373104 0.0026885901958547103 0.003624388938254612
0.0019803869660217476 0.004224681709897386 0.003244423797867215
0.0016209678349703286 0.004594811447101049 0.0030754240428172695
0.001560658056474131 0.004474760477295979 0.003120792473609468
0.0015675010685122829 0.0043209900153256785 0.003170695973519717
0.0017785082476518361 0.0038453158218173227 0.003276947111507574
0.002808786079322789 0.0025858751080751834 0.0036492982285972904
0.0024556461447547352 7.350013045608638E-4 0.0028560700947750763
0.0010722940754463457 5.311747028808377E-4 0.0035996310602352142
0.0011365856215026216 3.295587935578629E-4 0.0035608630370620917
9.494357014363485E-4 4.5473948102849726E-4 0.0035449379338803435
0.0010505095477080864 1.4262036283451014E-4 0.0034664925740129494
9.621547602484831E-4 2.6096513127927184E-4 0.003538371309657626
0.003867404203781723 0.004888084588425061 0.0038798732873969793
0.004024673894027112 0.004710299383041687 0.003910058503505687
0.0037200351924158047 0.004592828461113549 0.003857243518710202
0.0033197875263028323 0.004850537597031345 0.003308547563604049
0.003647375394961283 0.004092399846905817 0.004081901756392332
0.0016609723359837327 0.0049486526719618356 0.002924368063058831
0.0016127791658913633 0.004880200224909691 0.0029625301667422694
0.004231923047326851 0.0032686741667813076 0.0036760400928387235
0.0024923829981848373 0.00355356082366724 0.003729413980308461
0.0014466564244971735 0.004673295422145395 0.0030677632930339186
0.00152475114704144 0.004236008998835291 0.0031926531430482093
0.002273499227644203 0.0030699005734919323 0.003462565666235191
0.0031103256500054173 0.002304400185386886 0.003653461761848196
0.002746671456124449 0.0024334476314573235 0.00354950182953587
0.0029338119459326934 0.0023239512565695424 0.00359560091548305
0.002541708793509703 0.0026980708504119014 0.003549166068835691
0.0013016624856084656 0.0010989116850106566 0.0036047272343867963
9.132149841870233E-4 4.783496187448032E-4 0.003515993022704153
8.737066132258819E-4 -3.638546322498277E-5 0.0033791307900364245
0.001675488981210952 3.510127455259382E-4 0.00317468072150493
0.003965460620412955 0.005087126467051108 0.003805696408533484
0.003965882901880703 0.004938314174944791 0.003927846178526188
0.00394562078131058 0.005108915275850127 0.0035767351095953985
0.0041056986984197835 0.004933463426696074 0.0038916950063656863
0.003793102414296565 0.004958349289273527 0.0036331038251996915
0.00435482284974008 0.004588436641360221 0.0037752425088192812
0.004243169294213041 0.004138382909982099 0.0037902708988470884
0.0016145575297110773 0.005305876331497917 0.0027520827712556196
0.0014900648950909008 0.0053621039340895574 0.0027440919675625966
0.0017638235932439738 0.0048929519643439124 0.0029540717228891387
0.0026095917495336535 0.003628152507510327 0.004024863443571664
0.0014509035923612932 0.005191939406958982 0.002845247121992196
0.002282105310144706 0.004342684925413427 0.0034634274168819073
0.0014629988537602776 0.004868519394310785 0.002990696712237141
0.002581052943177195 0.003006070588158321 0.0036177754219529476
0.0016131240884979126 0.0037553928189346503 0.003294960559689832
0.001467258061078593 0.004018635283684251 0.0032414685907041388
0.001442479380481144 0.003751407601263635 0.0032961123218867576
0.0017535869009122063 0.003136229787010574 0.00338868771389655
0.002323173064516794 0.002696731768289576 0.0034871704610530234
0.002141430279804553 0.0027309119868783424 0.0034612713107229067
0.002143674760133165 0.002384180961529175 0.003492809021507753
0.002245539281732443 0.002261854479319041 0.003481713001576965
8.853213350446627E-4 4.35963359220727E-4 0.0034907434883818794
8.148929752499551E-4 2.3554129896312864E-4 0.0034186994026975948
0.001270099682593569 2.0347444803646E-4 0.003405223328000532
7.379406888381091E-4 -2.0778734413339704E-4 0.003338985619435333
7.308421671358075E-4 -6.735164356168798E-5 0.0033334228518689026
0.0019442959884605785 1.302471214435274E-4 0.0028083028961225914
0.0018434731287665209 -1.6573164627004195E-4 0.0026274005766858265
0.001359346722396649 -4.085245098944473E-5 0.0031564146686159627
0.0016999112210763611 -1.0927901168692618E-4 0.002800980745542857
0.004098045935625233 0.005253571997081123 0.003727362213708597
0.004307814737783213 0.004935902988462517 0.0037766982052254154
0.00412843262626705 0.0051214344490215875 0.0038306923225796107
0.004027504763058905 0.005204474281791864 0.003589018200846073
0.004651039228452136 0.003588210219058194 0.003520357365663274
0.0014594802373755994 0.00571022331721735 0.002560321750100339
0.002187252927319384 0.0048413494162079474 0.0031211054309610363
0.0019268390593109607 0.005035481943220463 0.002925607099235139
0.002290115191422322 0.004745216463407165 0.0032325814926119547
0.002586380591012828 0.004094065537267342 0.0038696084568268212
0.001379274086398871 0.004071746925036058 0.0032296498110777204
0.0039014179327139177 0.0019409009854105407 0.0031827441623685625
0.0013640058446936865 0.0036663250565334773 0.003303162288195895
0.001446986871278227 0.0034376266035529633 0.003344817238912172
0.0015307923190276775 0.00349218666423433 0.003337503504728672
0.0034174634260575646 0.001962313096632454 0.0033712698284638102
0.001980145818335345 0.0021821926300737726 0.003467041096515371
0.002122408619604713 -1.6955672344885184E-4 0.0023651025470285717
0.0017015877486409943 -5.389546591574248E-4 0.002362953998917106
0.0014523953191012385 -3.2656921665227183E-4 0.002810365271784029
0.0011365746233207227 -3.520075145122286E-4 0.0030581521580988346
0.004185211321700504 0.0053294592242061735 0.003658634621585216
0.004150413736988226 0.005328534686554138 0.003519791912433781
0.004265412782764032 0.005190264217981416 0.00370428006518885
0.004583251449860877 0.004601452917097056 0.003560519935625601
0.004639850730595871 0.004360380118356212 0.003550858699600014
0.0017088548690020109 0.005888036661050412 0.0023885183238543843
0.001630551616701556 0.006124147378165224 0.002266191373990811
0.0018664903487176944 0.005591564515960894 0.002579829157817941
0.0016004856141878126 0.005769483617701931 0.002491591243472724
0.004465080831060789 0.002501862170379682 0.0032836397889901637
0.0037602136674029993 0.0013331674663045775 0.0027834559229139577
0.0015828815321330006 0.001661945403803573 0.003521704201652919
7.945052375184445E-4 2.0953566985105446E-4 0.003231878744613372
7.08347424952781E-4 -5.125338300005847E-4 0.0031760204828239556
0.002873949298491369 -4.748952603210347E-4 0.0015308541282551171
7.347624991142681E-4 -6.497186001673267E-4 0.003175393645717498
0.0021863723912765513 -0.0010035375803903624 0.0013679919418184772
8.556640799338168E-4 -0.0010931888702119443 0.0028367562769786078
0.004466076550041606 0.0049343627401710905 0.0036082880021832318
0.0045992578118851934 0.004204241981805126 0.003586464703562713
0.004722477790321731 0.0038743352681028355 0.0034770294319684
0.0024438720309946415 0.004560391659736535 0.003464697035198166
0.0049108146668325305 0.003163216742575709 0.0032562723782124637
0.004614343489877161 0.0018518744953452046 0.0028191466322078544
0.0013296664744542584 0.0034721663201509423 0.0033295773453455007
0.0031350359830330304 -4.921125320271658E-4 0.001373157664899301
0.003138553195218466 -5.077427610106401E-4 0.0013431388653562765
0.0023324886017964 -0.001104258891256704 0.0011691357912484504
0.0020271862022568326 -7.818837319433023E-4 0.0017812254818848176
0.0016705499435574554 -0.0010302146155852386 0.0018424778814501858
6.953331682415703E-4 -0.0014948432270210587 0.0028533390542258307
6.53722361694116E-4 -0.0016290648161776773 0.002853137667776321
9.680122610419911E-4 -0.0016845195202132403 0.002298097680354097
0.00425075685622181 0.0054491262707269264 0.003512084035989287
0.00422589686191997 0.005423829456122255 0.003516593807798546
0.004301551088097931 0.005352710096719557 0.003532575664928004
0.004467703661893157 0.005076280610038411 0.0035054428552284077
0.004977755483048531 0.002192495514323656 0.0028142948141988474
0.0013427165938902593 0.00530994714474952 0.0028410645590494455
0.001309773432575222 0.004111766665209312 0.00321652391574092
0.0012907688927577916 0.0016654022347284852 0.0035388916372104274
0.003160306497452842 -6.163155812337331E-4 0.001194019741520618
0.002918136762988493 -6.221938068941879E-4 0.0012837549265757278
0.0027796402212952975 -9.98311313748638E-4 0.0010307256325242887
0.0020665519466111213 -0.0012065349964765412 0.0012122352862865321
0.0013151185460037605 -0.0012544275460385284 0.0020668361641946187
6.487324981563681E-4 -0.001759506450522797 0.0028303262897891274
7.570298313045067E-4 -0.0018388837946224203 0.0026231510170230264
6.690325555848984E-4 -0.001937959528085194 0.0027521214946253005
0.004319705301955886 0.00541499407615552 0.0034636176949993072
0.004270321943381969 0.00544787537824703 0.0035007293810545843
0.004717582867177261 0.00464393430495254 0.0032937065947441792
0.001882660938036599 0.005959403482838074 0.0023302852964066463
0.005040295892475296 0.003405093282546289 0.0031565181635685906
0.005169448655346007 0.0025949000873716813 0.0028572004723134807
0.0013121636984131117 0.004712068659522345 0.003066880280461928
0.001179273809648139 0.0015295070400199934 0.0035402215977890666
0.003256057690309117 -7.946414105851349E-4 9.608679920000029E-4
0.0030025045478329895 -6.418784062450268E-4 0.0012236125629917205
0.0028724337496084744 -6.948772945870839E-4 0.0012429249057784553
6.873755847657237E-4 -0.0013760830905496387 0.002928954521960005
7.631745025201193E-4 -0.0020201978858111346 0.002743037258384255
6.868408212328522E-4 -0.001949538811154779 0.00277653954648722
7.453785611529045E-4 -0.002139894558457465 0.0026118406621118053
8.258719164767374E-4 -0.002371677552697331 0.0025473219173221353
0.004416397112114971 0.005311383028011336 0.003351475789702229
0.004266789592827175 0.0053573353030815386 0.0033880202375595036
0.004402923587614822 0.005328521876983679 0.0034176688638451556
0.004154092830020548 0.0052890742651018575 0.0033700941533099968
0.0016753839147107057 0.006529096491613671 0.002043874851391883
0.001429955673281254 0.005979648935943013 0.00242025802089294
0.001343094526786519 0.006002715672764053 0.0024936761196309625
0.0052875622819904605 0.002892932655773668 0.002854920468515854
0.001182973190732916 0.006236629495897315 0.0025978761529665355
0.0011923340168014114 0.003901077794394049 0.0032380013813955557
0.0034072063434165702 -6.103929317798032E-4 0.0011614690110611223
0.0033542937179762665 -7.257123188188226E-4 0.0010132510099505013
0.0031414675648509115 -8.672980239487276E-4 9.487869522127319E-4
7.377634045412698E-4 -0.0015926313101218142 0.00282062397058729
8.472739656658545E-4 -0.0019668302703952072 0.0026575437925177477
0.001141928233675297 -0.0020221764219280243 0.001766504663067742
8.708877431364456E-4 -0.0023209589019100615 0.0026310823640139326
8.815563769517229E-4 -0.0024776703692231394 0.0025710479941762603
9.811063417142355E-4 -0.0021717170664969443 0.002060944259241472
9.458357216480922E-4 -0.0026682073179041545 0.0024225288349427002
0.004396880605692277 0.005180467768642038 0.0031222408398367935
0.004523065489834523 0.005163815881864753 0.0031518858712137944
0.004605988707680608 0.005012017657072008 0.003221823011835756
0.002222477718348552 0.006252269346803467 0.002000557323060175
0.0014394291298041096 0.006789048044874608 0.0020138593831736593
0.0012347787332430437 0.00684533135269331 0.0022313493450631075
0.0014591265230139252 0.006315165260419198 0.00223448940618487
0.0012064807544809005 0.007206822391057432 0.0022143809208725724
9.529546047936671E-4 0.005829060342846792 0.002972434968099261
0.0010673169621820122 0.005592068110779936 0.002924275943025853
0.005383970990705274 0.001284261553418574 0.0020369100483852865
9.690275149584453E-4 0.004707231700377419 0.003072365350528873
0.0010238850019618445 0.0038619144541295054 0.0032287847928189986
0.0035335613103923674 5.382435520489131E-4 0.0022152199954372453
0.0014239828564377324 0.0027939331575272666 0.0034151023133137223
0.0012203540112642494 0.0018471888388877512 0.0035104083091577762
0.0035578084946990157 -8.399621540521392E-4 8.736670140488988E-4
0.003404597014813715 -9.795820693655772E-4 7.716772112298194E-4
0.0032566394827563848 -0.0010078601456909397 7.800690490613005E-4
0.002980581024058159 -8.53299514146253E-4 0.0010381397264402918
0.002477146802965492 -0.0015347003291205383 7.367715844213071E-4
0.0014535815108722562 -0.001688105403139776 0.0013873779467997033
0.001001989303088884 -0.002743716188461715 0.0024084757295109354
9.695799522248105E-4 -0.002689761377370505 0.0023028747562641237
0.004610401342958077 0.005055259111474448 0.0029542365117541996
0.0017934034109623141 0.006884618456335314 0.0018268486860962766
0.0023934636085286174 0.005193195306567031 0.0028696878234753987
0.002666845565510042 0.005528988350831893 0.0023261977814650016
0.0015168861672985963 0.007083062244419051 0.0018784876647820977
0.001320397014185891 0.007258973770947387 0.0019784787341878157
0.0013294922360992754 0.006754617722518357 0.0021234709081306953
0.0011433707994760883 0.0071329611353106595 0.002386330989726374
0.001067308918154141 0.007359713192675337 0.0024532920739687067
0.0010024641150803055 0.007508120751677152 0.0025131628425211568
0.0010288645430528865 0.007144328891721281 0.0025919491836813
0.0010525859121267565 0.006672897541523717 0.0026347447429158136
9.799968803983973E-4 0.006701818163465879 0.002742420777043154
9.707694019357601E-4 0.006184233500990273 0.0028795273453334305
9.184668569385725E-4 0.005335060010033292 0.0031080555666662102
9.220805238729014E-4 0.0056216774040314865 0.0030587950449239973
0.0057274066149871315 0.0016602287475841464 0.0019827838932913416
0.004791437035343767 5.355658351832164E-4 0.0017374864177363291
9.557752323872109E-4 0.0036849641119645242 0.003204795063678888
0.0010363470184661864 0.0010829110344882467 0.003501605581380816
0.004177912515625094 -6.299365400418245E-4 9.774394485772447E-4
0.003840604721285418 -8.719503302716966E-4 8.082254472184599E-4
9.825079589586816E-4 -0.002319869072304629 0.002478834369989105
0.001387843262684836 -0.002235134335095735 0.001010415594476344
9.680136786754246E-4 -0.00244918496392443 0.002528940328229578
9.627869754349646E-4 -0.0025066838897495657 0.002178614100614706
9.823071325171487E-4 -0.0026267452344820616 0.0024913047286935757
0.004523727854898443 0.0050209178419571825 0.002901546809534123
0.004858919046110707 0.004729191884835657 0.0027616345612444014
0.004096512995193962 0.005048260851594606 0.0031255116967170873
0.005147354840680554 0.004058997916448569 0.002577816859990257
0.001936127918106998 0.0068332911700671175 0.0017862518028942881
0.0018393696428593827 0.007036420744156957 0.0017337757012923633
0.0012712793620607112 0.007511238591152588 0.0020242591187887857
0.0013709001459202166 0.007025413144875896 0.001964488598548855
0.0012237047086159699 0.007273265999180397 0.0020925840928116314
0.004977202317106151 0.0039123273713756795 0.003106519233340172
0.001084857437822277 0.007828884722339623 0.0023344324579088016
9.9711849776073E-4 0.006724486948058646 0.0027312392032576185
9.452852444083582E-4 0.005781243134038874 0.0029964488202161386
9.379584326403434E-4 0.005470786110477003 0.0030548394875631077
0.0011557494531536947 0.0028089604114360563 0.003372572023420373
0.0010740282080585683 0.0026900256546921364 0.0033633776508013766
0.0011762526486754027 0.002158346978038225 0.003454182570331074
0.0010538175330834783 0.0022146354034773058 0.003375308355589947
0.004220015594917606 -0.0012003906225576647 4.4476095451254056E-4
0.003761550022811901 -0.0011803118821446044 5.415854157522661E-4
0.001085240517902583 -0.0024846620848062487 0.0023226710310608524
0.0010883799882226261 -0.002622753318077056 0.002373942689486903
0.0011012851778564863 -0.00276562196151563 0.0023636613280149923
0.001122165707663645 -0.002893008194716403 0.002283720170169158
0.004735452016203438 0.004835272884662625 0.002671007238442906
0.004747348778797638 0.004897268365229052 0.00276190963137958
0.0020001650149404013 0.006936223896273965 0.0017311979914057612
0.001490500604968547 0.00744148373835197 0.0018266584420074258
0.0013897728419434304 0.0076146114817789165 0.0019040948472459848
0.0011972618173550606 0.00796517929639974 0.0021988665776176714
0.001026149233078196 0.007826799365984126 0.0024102066758489656
0.00559602702089477 0.002358974276470875 0.002348799527297267
0.001053927030118523 0.004523915352873587 0.002778093008668035
9.645040818460732E-4 0.003872839945113174 0.0028814922530064385
0.005866460113163124 0.0010697988231591427 0.0016210781559294078
9.127000137139151E-4 0.0034088722735815986 0.0029969356925108595
9.190837995526556E-4 0.0037314461533127907 0.0031416522668022127
0.001024729481521867 0.002973636213537271 0.0032812738100876397