# vtk DataFile Version 3.0
vtk output
ASCII
DATASET POLYDATA
POINTS 1480 float
-52.91814595319634 -11.531097155245694 -25.470732553309706
-51.71359005114471 -11.898221393747871 -25.376374980400634
-50.530132158454236 -10.9612513851483 -26.164495372430313
-50.43071366815999 -10.333385370370364 -26.665360882769303
-51.84006635001191 -10.5203664368041 -26.14037781841627
-49.652522998164365 -9.469196495861414 -27.25320202538881
-50.35492220695375 -9.72740496480414 -26.97629555088134
-49.355242233243146 -9.210417891306424 -27.322248651955857
-51.32916971171509 -9.040549952636782 -26.670730468473383
-49.93692764332527 -8.848487584721108 -27.35666683862706
-49.679067805590144 -8.024499277812499 -27.516004754629105
-50.52449388780884 -7.9095094593654665 -27.106043339899934
-49.87866960158313 -7.427250743997282 -27.407344703790447
-54.54598239161496 -13.602190869159895 -24.257491440204486
-54.8918026943352 -13.013397094172642 -24.711304432323853
-53.62784530826934 -12.50390357093408 -24.86148387527031
-54.984352105929894 -12.347756599159569 -24.658580059767463
-54.45590109765597 -11.033207217055553 -24.652628733466024
-53.05117059687758 -9.379606945405211 -25.530032881254925
-48.869087994556914 -8.439748857589109 -27.34253256910435
-52.315749767908336 -7.719951027664807 -25.74626325536066
-49.29800327260765 -7.422674489642885 -27.461120489872407
-48.087416309725945 -6.860215503942936 -27.352248837864103
-49.126937938922026 -5.638443719938706 -27.30731267150552
-48.66802477963225 -5.811171201924681 -27.40104491275999
-55.63734982442996 -13.929189513853014 -23.699892919953527
-55.88159690431401 -14.304884209617631 -23.138495449946152
-55.36737126516471 -13.523466220144256 -24.377063721208426
-55.21700921786373 -13.340788524231671 -24.58082643535439
-55.87734932101998 -12.9848557565961 -23.97414295848462
-55.85319278808747 -11.954185541438154 -23.917245983204054
-50.06022725970827 -6.290543730298247 -26.835745409688432
-47.43066790693702 -5.4234835704346205 -27.533365787231933
-43.73622512482867 -2.410922312366645 -27.878493160052486
-47.48267331600402 -1.8210134819737078 -26.9678606733192
-43.78629648691145 -1.1383058569558464 -28.20257224863883
-44.63673158660037 -1.0617940764136158 -27.999580662617838
-45.15681041657612 0.05860588846799016 -27.922650331060428
-42.98654955920313 0.11067047132692963 -28.32704929911496
-41.324116789821815 0.9823707560148653 -28.619869751314404
-40.93567733044437 2.895503114014844 -28.935692563741913
-39.92361941789302 5.033782980381971 -29.66483808122593
-38.64647250517411 4.783536466230466 -29.5680934497379
-37.67620363415589 6.064428548423652 -29.927489743085314
-35.917370573561406 6.737076135417411 -29.371076742027864
-38.910796800197474 6.199381350749179 -29.97281336953002
-36.75719586842335 6.656355264171398 -29.840359479324743
-37.52587994408236 7.105931979729127 -30.109641029460906
-55.09725822147432 -14.750459199769843 -22.58781687061173
-51.73051305007091 -13.744180643573705 -23.363001507245087
-55.21348591826461 -8.447707709852118 -23.469718368188047
-42.86546546735859 -8.766656995883059 -25.49028159947994
-39.632395979180764 -8.160343021749453 -25.382807428464243
-38.41313682159168 -7.050760207684241 -25.720862502286113
-37.979546251707724 -6.273098195850075 -25.93775206872341
-39.45450208783868 -5.508636294924812 -26.422033847406695
-46.48882803406983 -4.886773688686855 -27.609465491467
-45.460766503779 3.1267218618796826 -27.76883994016508
-36.15770387148782 7.771871350062363 -29.69274374030446
-37.242616407832585 7.9505586865434426 -30.085806697991316
-35.1757806960632 8.66483537497262 -29.223699122580726
-36.83976428321207 8.971186755393092 -29.7739885542738
-35.80211093376385 9.023512285215459 -29.60581817729798
-58.58838944380636 -17.65160845995286 -19.765817930094478
-59.21289661241185 -16.873700656284825 -19.97276300037555
-57.221990138188076 -16.244107646601233 -20.604919672854365
-53.619700570367456 -16.96701193181596 -19.208407029551193
-56.75442898519413 -14.078421343137956 -22.456145908644395
-41.39417140158881 -10.401419548371589 -24.381624422886667
-40.48847973998732 -9.615706249286745 -24.744868710832417
-57.863195946301005 -11.295658428068913 -21.51075595991256
-46.8335937641886 -8.585460095885644 -26.586093809339403
-37.2128367999342 -6.949859336577172 -25.361120636917224
-37.113134084242745 -5.434180743958178 -25.92226889911085
-42.7969446858848 -4.699115143030554 -27.260672201736675
-48.63220780262804 -4.764108666514747 -27.219966016865556
-45.81339247728791 -3.9353944522809576 -27.6028139085478
-47.17273598498927 -4.183976899244159 -27.52419988434154
-44.46079742628706 -4.263237074645528 -27.616745262273056
-36.64773038914367 5.493480091740458 -29.241004469253426
-34.69730834344735 8.882090180842276 -28.90638792239801
-35.16224643564411 10.64223467397596 -28.994801938441768
-41.2282070506357 6.280311079024578 -29.397618636872426
-59.274046788551836 -18.734709498956963 -18.872233940090076
-59.32221568463004 -17.834721033631823 -19.67696918207859
-58.62608324629989 -19.393863910885987 -17.822681962198736
-59.96444972373368 -17.882404628712536 -19.328774068262813
-57.625279376317664 -18.300009093204668 -18.781972013044907
-60.490066724060775 -16.659903990717023 -19.11399419149781
-59.25629804833553 -14.750121851482024 -20.213648803256017
-41.54229947457755 -11.687781460928175 -23.417248193843793
-40.062864958638286 -10.929508803124833 -23.75366381348506
-42.373246147662435 -10.818642755427327 -24.173778658542204
-49.11982593833747 -10.018902628757147 -26.61907674530757
-38.85937313116258 -9.627675923380144 -24.34281528954813
-46.72231503753411 -11.361223657511182 -24.659226764465565
-38.144208486125855 -8.164332486422138 -25.075635325072884
-45.572483599062885 -5.944301023792806 -27.25417529299982
-37.36282073327697 -3.9642547526502883 -26.48664708520493
-35.988964896661074 -4.0001311022521735 -26.032543829862124
-35.426886613895384 -2.7568447601790464 -26.232951896305437
-38.27350369363551 -2.3664301388206623 -27.142437420874565
-42.54470049621522 -3.257013156985033 -27.723116728958022
-41.17538149137188 -2.6178335905127685 -27.710651045024196
-40.98572935047584 -1.310629782790568 -28.12175015925119
-41.775035520288995 -1.2621773002951107 -28.15730315457375
-34.36913630074613 9.233285924148042 -28.702278492737726
-33.541754656267564 10.426949506390846 -28.21803587223439
-38.531138336097094 7.918725607688406 -29.937066863182217
-33.45833031032129 12.17626772388273 -28.272029548985664
-32.669607486965155 12.030684725386541 -27.756598240698935
-43.76894191545299 6.229898213270127 -28.78806715487102
-43.86663851675446 7.463652513052952 -28.687130839167004
-39.76796210039042 8.464799480145654 -29.56986468348345
-42.679555033746006 7.653938591240068 -29.019445650916083
-60.084525022807746 -19.636600460018588 -18.028010201502322
-60.79608387653213 -18.113698499270722 -18.554080621459786
-60.258293664904734 -18.809531883619854 -18.688619012060062
-59.27351680391557 -19.818166851443834 -17.557557528408715
-60.07060861644455 -12.97133955606495 -19.4690303973893
-40.23749807477572 -12.163843668498746 -22.78494170558282
-46.17038785620129 -12.952179656961395 -22.969458366938103
-43.95626230928632 -12.269584282955634 -23.158699220719342
-47.069157900609945 -13.106407846249203 -23.044104687291593
-49.68065696516827 -11.87466868628197 -25.098305654917915
-35.04959617607838 -3.5858513462648802 -25.779280540476826
-53.580604820485 -5.127809905586057 -23.816788086066495
-34.68200138697474 -2.020309467829303 -26.068098347025444
-35.433548318521474 -1.7035460835219174 -26.51410627802369
-36.284768662135534 -2.409320511940257 -26.613437303918108
-50.408387428813384 -4.053177695682114 -25.93435760677254
-40.07803248344272 -0.028846969516141102 -28.183853625641067
-45.51706031241769 6.933365167347705 -27.862189538238702
-43.43245944199201 9.322150571110026 -28.08383479816811
-41.04410763975449 9.255853367917874 -28.918454639490626
-38.288635789470455 10.492970700290106 -29.11042267968158
-60.52287737948282 -20.091486838080595 -17.491684211239704
-59.99037773250284 -20.481299670479462 -16.888732296134584
-60.834254707746055 -19.366419288180342 -17.843044889727665
-61.37948607251181 -17.196883596996962 -17.81542472321311
-61.2794906148446 -16.18867479910347 -18.130133033486448
-42.51229442478206 -14.312709088097872 -21.034002337271062
-41.657516272976885 -14.521363244318783 -20.682773558218233
-43.65256345254264 -14.040600603501545 -21.414585467143894
-41.63686897909004 -13.280138501755015 -21.969596488396995
-57.51829187514697 -8.437401826537888 -21.26257410239686
-52.10588768374199 -2.1560815231960144 -24.125862952901443
-37.88854615320674 2.9614978260290257 -28.64810332368818
-31.6201878095869 11.498414914316715 -26.610507725462067
-32.25612180584757 14.000939338755165 -27.34617425523499
-50.391600190283675 6.467987615599916 -25.71870788803136
-33.886983487944136 13.763294824859003 -28.234914649430486
-47.511337483192186 9.974377941772834 -25.80107270137163
-35.92122515817952 14.735423227641126 -28.142821469280964
-61.33625925905178 -18.49908479371381 -17.601042475382055
-60.86763401414747 -15.462205603765792 -18.634947752644422
-60.81908948399768 -14.294309124530853 -18.59572180147153
-48.4320581851827 -13.041087600858997 -23.489331955204964
-60.45184014543825 -11.6403303682401 -18.758800356691573
-57.263825730211785 -6.021459734345706 -20.663247627627964
-34.350554593753486 -1.182379029949889 -26.101312791027365
-51.98023693844484 5.953090402243355 -25.564854490350783
-52.09575705787324 5.994853853452793 -25.606124650950417
-48.47029081015666 10.01827715337109 -25.321966009700706
-46.052422137467495 9.487769144538172 -26.725610245048394
-43.94923258454743 11.374282976363826 -26.839196606073553
-34.33458743770519 17.04210021914824 -28.024231173244214
-33.879157099944045 17.784321656182488 -27.9887895528694
-37.393241243932415 16.767745461733476 -27.133459952080475
-60.740278680101646 -20.943914000117005 -16.564446127493202
[...]
POINT_DATA 1480
FIELD PCA 16
mode_1 3 1480 float
0.003832275317936834 0.0035918141365854778 0.009810057698250925
0.0037314121624496105 0.0037082502036906713 0.009719309772070726
0.0034305298913008555 0.003567368702910003 0.009670796013673507
0.003299662526664061 0.003446295440616348 0.009704047266994517
0.003523517571819034 0.0034435662746050543 0.009760180776112227
0.0030174890328511497 0.003334669164591009 0.009693234637112724
0.003167653133836342 0.003348508564798617 0.009721758960768613
0.0029226747471723397 0.0033178176301480915 0.009674484451549673
0.0031886812213734093 0.0032178943775834903 0.009736257704533333
0.0029247823644783723 0.0032348369855110816 0.009723274394771253
0.0027108898862411085 0.003139590087920939 0.009718999745793076
0.002841463563186095 0.0030787972187675833 0.009715182017136345
0.002631071126477324 0.003041564131842278 0.009710736208401727
0.004300168489050654 0.0039244356841079235 0.009931827353583684
0.004282981612407693 0.003785904672737411 0.009968585936105162
0.004060438172818486 0.003753466177991688 0.009849264146163508
0.004220145145196269 0.0037002099465528846 0.009912939573134808
0.003992552106843518 0.0035193935573893044 0.009772859595463809
0.0035444161088583966 0.003246261596947363 0.009704090780056917
0.002701928213184936 0.0032562539569807635 0.009627382395804619
0.00318397659172472 0.0029712182426867135 0.00960597395314487
0.00254589777831106 0.003079701997354436 0.00967515883628523
0.002284552909957572 0.0030872072584735883 0.009558043321513311
0.002186386448201708 0.002807857283332947 0.00963780334867493
0.002142890818061247 0.0028754444351168787 0.009622310994477697
0.004458182118150465 0.0039886537051387885 0.009976027115795939
0.004513937082312517 0.004091907595201397 0.009957896739206076
0.004397274864674109 0.003868849080578181 0.010004509788573467
0.00436170626153491 0.0038285805038530216 0.01000294486231542
0.004410130994903897 0.0038196357460979448 0.009935250608081507
0.00430552212367801 0.0036815508114062517 0.009832470117491506
0.002515583632649394 0.002836326164891439 0.009603223222947602
0.0018983066948165387 0.002891737327827874 0.009545186233019448
9.926703180525539E-4 0.002504708602597078 0.009238769521834323
0.0015677671028846614 0.0019218267545494442 0.009274636313130752
7.587763594504413E-4 0.0021923968202098225 0.009321877705902934
8.993918265689417E-4 0.0020677787967551212 0.00932637425092823
9.059975049975046E-4 0.001640281908900738 0.009263341805634234
5.674585009670234E-4 0.0018930223268300468 0.009206559397602685
2.6289379766287086E-4 0.0018394551078272008 0.009113162165795797
4.082355042396838E-5 0.0013013977974021523 0.009075825959669628
-3.731983097275051E-4 8.068575154405897E-4 0.009136799653748962
-4.658817918159959E-4 0.0010701974728851353 0.009037918261330805
-7.204936753174083E-4 8.33396867560993E-4 0.009035221055894885
-7.196993287730239E-4 8.332311499164834E-4 0.008656538400616604
-6.060596934643798E-4 6.021764064866482E-4 0.009109856089702526
-7.970767556836076E-4 7.756500773257619E-4 0.008904381513305542
-8.098276873748559E-4 5.312544301603659E-4 0.009017897879016573
0.004445434747796995 0.004234912036949108 0.009871059806260202
0.003996229281770304 0.004165388511545001 0.009566481155581978
0.0038571167043994254 0.0030602220824940524 0.00946115011228021
0.002331419465898978 0.0038271359639584115 0.008563825696272563
0.0020473665337818812 0.003966307328667309 0.00797837729116456
0.0017440953114983965 0.0038540161404468517 0.007853478221193646
0.0015556617103673427 0.0037428111945700753 0.007849374800561896
0.0014318839501843807 0.0034792484981805696 0.008245946053311666
0.0016773875322069012 0.0028568270580421463 0.009479685194528008
8.216180800493327E-4 5.384920610186763E-4 0.008973345752959947
-8.132645809979118E-4 4.950401923316277E-4 0.008720727858046002
-8.371424080330379E-4 2.994310012000412E-4 0.008922908470663486
-7.536281498837994E-4 3.336124591265548E-4 0.008406005896291677
-7.812268649093284E-4 2.0723823195123326E-5 0.008694132523798987
-8.251186643303997E-4 1.5860262994895616E-4 0.008568901499743556
0.004911481237637263 0.004803385421028482 0.010095392056067218
0.004962652101833614 0.0046991578478859175 0.010035553444786287
0.004733667384534481 0.00457930167752182 0.009933056831868745
0.004417619732737793 0.004912850010213917 0.009548340847334672
0.004589506833055214 0.00410606537318698 0.009900049878421115
0.0026440364242486547 0.004249709294672922 0.008086475708170709
0.0024241560982468597 0.004173576967092149 0.007983398730499159
0.004561180801984199 0.0036935747275888857 0.009541055971300876
0.002549861250721557 0.0034624049373439274 0.00929797877005219
0.0017151606780451555 0.003931149212471672 0.007578046665702786
0.0013733357342247162 0.0036485876402735824 0.007735301416787237
0.0013643382590909866 0.0030793263615487587 0.00897670453630205
0.0020111527586718983 0.0026351666670691052 0.00955496692462332
0.0014731207579737715 0.0026807229760436838 0.009393453915146208
0.0016795431109046125 0.002628656509689898 0.00950008678210643
0.0013708133356501993 0.0028730333661093088 0.009271510426661576
-5.752666024269269E-4 0.0011046821064365268 0.008728751819795816
-6.918199247055826E-4 3.162071676429708E-4 0.00823406292987159
-6.706521131899881E-4 -2.740892252264492E-4 0.008155382781577517
-1.8686570020440163E-4 1.7187503137659773E-4 0.00900680588937754
0.004979862699926219 0.004996071034424215 0.010167922495922835
0.004995144232715456 0.004831397624387905 0.010139696479676252
0.004885784458053698 0.005153604872877745 0.010114464740098689
0.005052866790556587 0.004872694441395582 0.010115729174246527
0.004797295228754186 0.004973438232131601 0.010008200936997422
0.005078115923339324 0.004749226993959856 0.009923540518817867
0.004895786834921814 0.004394775404251205 0.009797871827081464
0.0029436558679180563 0.004512203466112778 0.007960501307795019
0.002713848988153637 0.0044844980204272996 0.007721963142692569
0.002777364346003455 0.004257741224518537 0.008249189839874353
0.003079662530255872 0.0034935993031376686 0.009566351226678656
0.0023683828106733622 0.004328940535411511 0.0076157472835044005
0.003149858496197161 0.00399774725406127 0.009040400978208327
0.0020041861887516717 0.00409214082295452 0.007646464010527351
0.0018344706115438838 0.003114366174888255 0.009296584563109606
0.0010542540404156356 0.003343267646959458 0.007962150960814249
0.0010673309804619146 0.00345546119299031 0.007626675302574834
8.217573578954614E-4 0.0032444064482728442 0.007623256057641172
7.617542580226776E-4 0.0029244318454690406 0.008313689130399999
0.0010168744505613028 0.0028161700418318954 0.009081888469256495
8.388974454562381E-4 0.0027733182861690592 0.008893754038381853
5.488575814063881E-4 0.002504453297797956 0.009001625294878217
6.061350472678833E-4 0.0024143199661929163 0.009095434621043045
-6.491958881835599E-4 2.4489723578755116E-4 0.008107601791063916
-5.444915352010183E-4 -2.4453137736887333E-5 0.007778280314989163
-6.581353268625914E-4 9.75183316966605E-5 0.008933054903329058
-5.509809414795531E-4 -5.164763335539953E-4 0.0076542269389433615
-4.464504076809754E-4 -3.997317469177753E-4 0.007424152698597144
2.507844252659316E-4 -2.6777896632940493E-4 0.008913055349685622
2.467134453302233E-4 -7.310840372810704E-4 0.008756192287929152
-4.319737462028399E-4 -3.0671974513059503E-4 0.008805740927224295
2.7293375880759753E-5 -5.739311636062832E-4 0.008805129019849416
0.0050411199292355125 0.0051669545031064685 0.010221063980540838
0.005117948072111641 0.004967502488062436 0.010059933816816885
0.005075857588238634 0.0050281928865617215 0.010176976529604378
0.004945546772682262 0.005220133169933803 0.010171307971535464
0.004946094773284849 0.004181807993924282 0.009517412238307455
0.003000043289550376 0.004747564326305994 0.00759954604374695
0.003418893818177287 0.0044082895027227256 0.008786352233315505
0.003164901040068044 0.004453668357151079 0.008404185833726891
0.0035068624404638116 0.00436187003722259 0.008942231953008776
0.003505420712401294 0.0038411908959525756 0.009478451698301913
0.001016069875706491 0.0034299599824569533 0.0074262867306021515
0.0032391343004504777 0.002309755582655802 0.009183020075900139
7.520101176116155E-4 0.0031046752909974257 0.0074841239643585675
6.38199841114056E-4 0.0030063165520958163 0.0077270624687625095
7.527642336287498E-4 0.003099299849053988 0.007867452702828025
0.0023689851712481416 0.0022834210115031863 0.009364231740465606
3.6814394975100514E-4 0.002227243930273312 0.008864705083231594
6.579774568359913E-4 -8.484227713235973E-4 0.008609013468388408
2.9865885846451306E-4 -0.0013053636257825017 0.008370117559290976
-1.489797863636406E-4 -8.180837232411626E-4 0.008561548221530449
-4.594244068480427E-4 -7.285131094565856E-4 0.008387366454965486
0.0050638733223207074 0.005264576087350846 0.010232427504976565
0.00498889659568434 0.005352611300542358 0.0102103638568878
0.005104342178024075 0.005161104005521948 0.010161021754685211
0.005153832592574526 0.004893813768553458 0.009827350390519565
0.005147171830389049 0.0047456213466897474 0.009727972261665765
0.0035289744232338814 0.005080829486820798 0.007855437217725194
0.003529946734239741 0.005234272201377623 0.007633950218126162
0.0035156543160455374 0.004912230061101746 0.008130870792270024
0.003288501688381836 0.004894734168888469 0.007778490054710406
0.004329043618551184 0.0030880034827489885 0.009235146215793612
0.00267577727494075 0.0015657114415776198 0.00895170283777743
-1.5544381170975912E-4 0.0016454494198202016 0.008710036565681544
-1.4584086541699653E-4 -2.0465312639337228E-4 0.0069502915398375505
-3.0454786552207546E-4 -9.285821758329029E-4 0.0070711322607198805
0.0017637068175725362 -0.001556601080795529 0.00817692204532395
-4.7011218399411277E-4 -0.0010417115081239102 0.007512726197812912
0.0012464751870842237 -0.002347784533529019 0.007738261627310812
-3.0671080955534395E-4 -0.0016533912218990722 0.007506409709837703
0.005142869087401282 0.005077572270752811 0.009992678783518652
0.005094149300069942 0.0046165824515356155 0.009700624077748257
0.0050703071081833065 0.00444635154259088 0.009555824891419122
0.003604285369723169 0.004229944452017776 0.009168140436876393
0.004986958009733727 0.003967031482706472 0.009271749172801174
0.00416440074262495 0.002447072249251709 0.008891393149330587
6.494774227995922E-4 0.002915298753717658 0.007463238125107586
0.002041550756374707 -0.0016710057502919793 0.008193238092801746
0.0020575614165036023 -0.0017209290804893963 0.008184543806266808
0.0014654918245237429 -0.0025331396624858143 0.007631751098561349
8.908412540413603E-4 -0.0018777436647792114 0.008024482304917509
5.779188815626664E-4 -0.0021330886207530622 0.007809691069030886
-2.9301413309352966E-4 -0.00205791935331602 0.007132856878901642
-2.809845646524613E-4 -0.0021927760838550063 0.007014671698269611
2.4263960413714877E-5 -0.002532265150302279 0.007069105075695141
0.005042115165663026 0.005435262367099037 0.010263691228418855
0.005031087643874805 0.005415434169613782 0.010255079136259176
0.00506849060271888 0.005367431874510987 0.010207138594164018
0.005118126328765822 0.005226862391570378 0.010038764140647182
0.004710632587371119 0.0030151750324738575 0.008874206102961562
0.0021468621320936605 0.004332604595061759 0.007274830719917916
0.001033541563698858 0.0033885792105127492 0.007257710453868781
-2.8559724496038505E-4 0.0015480555280163377 0.008309930275382682
0.0021422248909992257 -0.0019440626765418632 0.008096928904071177
0.0018984808155290526 -0.001948772618302956 0.008101943197749657
0.001896704917640831 -0.002420904291594197 0.007746321907164154
0.0012255602332878024 -0.002668967343473023 0.007530203711920199
2.438975587448661E-4 -0.002228671422358008 0.007528626746921211
-2.5162907782027937E-4 -0.0023264520385980875 0.006914888534626434
-1.5131692473130469E-4 -0.0025029357329708693 0.006908795211761071
-2.057888760233918E-4 -0.0025325501640643287 0.0068302170300483045
0.005048936904192314 0.005453026360848304 0.010229423030581107
0.005045597925477892 0.0054438419593916265 0.010257898849095113
0.005145778920739967 0.005075581920532228 0.00975428316968927
0.0036988616912321 0.005273635001558518 0.007912125069859315
0.005136980421076493 0.004244806154749579 0.009255334175211764
0.0050257457132610785 0.0035579447995003496 0.0089203418867212
0.0014982674440051254 0.0038300530128884337 0.007173859249242082
-3.6067002807164034E-4 0.0013851389614889073 0.008169825937746194
0.0023242265336343043 -0.002246633556019445 0.007942259184098134
0.001996453945038606 -0.001993189510632666 0.008083135774137974
0.0018782868121414882 -0.0020369827169965846 0.008033150884857862
-2.110835248640395E-4 -0.0019000703924569927 0.006845413219823256
4.572387106790465E-5 -0.0025934552681766984 0.006217412431284971
-1.4770114110868417E-4 -0.0025215478645562875 0.006661260408174145
-7.384380831084235E-5 -0.0027811849721016335 0.006595272110101645
8.868675648062293E-5 -0.0030087653865548303 0.006219508814559955
0.005035036106964751 0.005475913736116932 0.01015417879592258
0.004982502801137949 0.005471862771029447 0.010200306926442299
0.005064215575462266 0.005435412517877227 0.010165263936374437
0.004921811366764164 0.005432269081193827 0.010157810084907501
0.003682326358459336 0.005628697857870026 0.00737731093259831
0.0031361122091980126 0.004951554933152302 0.007446947770064452
0.002842191238398479 0.0048849496624357724 0.007192326825744421
0.00518104132463561 0.0039305662403262215 0.008958685506855473
0.002440056637982166 0.004842337220358921 0.0065519542985064995
9.415296174982168E-4 0.0030831061453577726 0.006966051787447633
0.0023730579038690595 -0.0018008465056029586 0.00805649419214085
0.0023821494615548144 -0.0021005859471366294 0.00799237846427593
0.0022345520973854885 -0.0023268124491575034 0.007878592208322656
8.181432631346281E-5 -0.002163096168794417 0.006138113331972812
3.187779996000306E-4 -0.0025880426854813436 0.005615759357043
3.700147504764173E-4 -0.0031338475457221952 0.006650426479569305
2.4662106680681766E-4 -0.0029157546183258137 0.0057873121300671924
2.0418420395634874E-4 -0.003080969595638489 0.005923595277557587
2.0874887432872295E-4 -0.003104515200753802 0.00651384891799224
2.70927142298103E-4 -0.003321538858819818 0.00585796550191069
0.004885225226718107 0.005586362212327231 0.010092502466657657
0.004969653173959821 0.005548378338225148 0.010064419916434418
0.005065438409593738 0.005373879081173021 0.00994784610375792
0.004006073037976764 0.005876279463332993 0.007767820383604901
0.0035094205158196948 0.005635194642473631 0.0070161973608031045
0.003033255352503893 0.0054215879255280885 0.006568624238196866
0.0033442885203676044 0.005257432717148963 0.007308144009752213
0.0029895678857367624 0.005587040365587495 0.0061716141343571744
0.001884074500021278 0.004106603417560783 0.0056943484946511405
0.0018408201304807037 0.004152152496271045 0.006235286310154918
0.0048179715681379385 0.002174801453805869 0.008253055058910583
0.0015117912331528347 0.003311991043440837 0.00571839372035943
0.0010092699325259403 0.0028498278728004956 0.0063847502628083495
0.002316672185069919 3.464447600050821E-4 0.008593325561297091
3.4336852230509575E-4 0.0024700924821064057 0.007919030962198315
-1.9740302616166755E-4 0.0016492426203197335 0.00806240999810722
0.002609459030784633 -0.0021644539183235975 0.007868545278751223
0.002526934771035952 -0.0024247264829404523 0.007760790040730051
0.0024044497427136535 -0.0025073204235471743 0.0077450245687076275
0.002059287298435108 -0.0022848850449075746 0.007894230741397695
0.001781927275261281 -0.003091522852107268 0.007242932566322243
6.783047396372449E-4 -0.0030523266688663336 0.007013684592107735
3.6379935862904323E-4 -0.0033885916072813526 0.005652564410495621
2.9478334611669543E-4 -0.0034070041238733377 0.005883945176272462
0.0048826250837268265 0.005660610995362123 0.010015257177804418
0.00387971467263564 0.006047437977861427 0.007212236914081506
0.003805313316846062 0.0048667744181470724 0.008710790331002492
0.0041085738795462665 0.005548551314853563 0.00848269821162705
0.003651586630271086 0.005935548756164415 0.006868247850942497
0.0033862905715270264 0.005843164547010561 0.006498335354809376
0.003283754894910673 0.005488067754534134 0.0068655509489494474
0.0027485412980083027 0.005389829244230245 0.005977785644393514
0.0026775014704868527 0.005375977397617381 0.005634234533462407
0.0026014154571675223 0.005293149929375285 0.00532346664626395
0.002437215022796155 0.004936291830921623 0.005135285359593631
0.002393474432666598 0.004932272479623647 0.005982410744956028
0.002263274055474494 0.004743295713129813 0.005572288935267471
0.002045517938477734 0.004263796037772723 0.005340145089255622
0.0016801810008314573 0.0036964827083595998 0.005605415934258972
0.0017884737828890607 0.003889853462058198 0.00555410453670715
0.00528239316614247 0.0028576806168989976 0.008172792884588468
0.004008709491730658 8.233935151184396E-4 0.008082580520126332
0.0010351707926944329 0.002630517343947478 0.0061127873068016056
-4.260777286213389E-4 8.865152271279503E-4 0.008008257828225429
0.003220048901182918 -0.0013497122242214124 0.007766978872584952
0.0028893907348213604 -0.00202553328767497 0.007777181534014366
5.527511419367259E-4 -0.002999088163861424 0.005124035933606581
8.376580101712929E-4 -0.003757664386884155 0.006330156729360441
4.285385749394107E-4 -0.0030813598901742022 0.005413783531943363
2.621216408651903E-4 -0.0033216561929537056 0.00609762641501317
3.7289272103427715E-4 -0.0032475818745954553 0.005577983930552029
0.004796210995996833 0.005699322184087506 0.010015198727967795
0.004927188364452457 0.005572603522406197 0.009746470547344047
0.004766349010966063 0.005452473349537696 0.009935380801555222
0.005121827469586881 0.005083435075663756 0.009214618778008835
0.003987935434168146 0.006145356717411814 0.007325715031214966
0.003957341231137467 0.006226457118993169 0.007133267129806931
0.0032577610587238666 0.005898389327461813 0.006133958928587995
0.003478203836259318 0.005753474012372749 0.006783972303005082
0.003180081760923118 0.005722520428293139 0.006312179002666969
0.005194026441153949 0.004638875680730029 0.00936398660170453
0.0028368192161205433 0.00564550738038996 0.005367616172968869
0.002259428590546699 0.00463431894039039 0.005226655252753241
0.0018840219282510093 0.003967403965700834 0.0053731875005579325
0.001759582337762788 0.003771163179804 0.005479639788421764
3.7382550619413635E-4 0.002272080559772627 0.0072799815891663325
3.5858288780678E-4 0.002107691784498254 0.0070745040388324664
8.362762668513017E-6 0.001829433348291072 0.007725066119134783
1.8322119065816668E-4 0.001727432725302521 0.007210243267968791
0.003343848523478414 -0.0023035692705378466 0.00745167702714707
0.0029166196155966714 -0.0025056254579412947 0.007536214286854797
7.277588548900887E-4 -0.0032226222521043748 0.00477220770328393
6.318186772766188E-4 -0.003313840146509997 0.005011160645298847
5.665073950704552E-4 -0.0034324994826682633 0.005201177531732357
5.446831203562474E-4 -0.00357729874638863 0.005313048162565824
0.004734410444277817 0.005816616125401124 0.009916397577678307
0.004816717324760111 0.005746573707020574 0.009925971385150716
0.004012072354487828 0.006281593821807801 0.007173068089292402
0.003620685231919009 0.0061458955085106695 0.006502335031590106
0.0034466895899757256 0.006102428319850657 0.006181149184951131
0.002961880605596837 0.005793824156777645 0.005271795693458858
0.0027341311920262125 0.005514131649186196 0.0052175296711905045
0.005319774911791911 0.0035701378842007696 0.008506419742584497
0.0018009675160435942 0.0030812913676565713 0.004843279146871502
0.0015853861255760676 0.0026148201661056266 0.004992791537077511
0.005281626064717197 0.0022116790521899826 0.007874986990146906
0.0013047772278425704 0.0022897038233830177 0.0053550710469147155
0.001182876057553793 0.0025929606234846507 0.005793853910208045
6.265163125880582E-4 0.002223735026915929 0.006675632846062975
9.543478450294866E-4 -0.003637909420926669 0.00661471580464528