# vtk DataFile Version 3.0
vtk output
ASCII
DATASET POLYDATA
POINTS 1480 float
-55.4015833241001 -11.546306817999515 -23.90147018934324
-54.27621606161008 -11.79543403315531 -23.855991562591893
-53.26225665477092 -10.754640685760878 -24.628568684449764
-53.21057035041491 -10.121935409613954 -25.108312270917615
-54.45590428462478 -10.456653043401683 -24.57892311591434
-52.51164451760639 -9.221851603196988 -25.717572952115955
-53.14501361472646 -9.53291109332774 -25.426894842054505
-52.21996375800292 -8.968651546277462 -25.81052420034035
-53.9686505203556 -9.015691928171627 -25.15274772036198
-52.73911410581612 -8.676733221603078 -25.848965908986294
-52.442013307764775 -7.915622315613276 -26.072076630343307
-53.17639521711795 -7.909198590043644 -25.66293616667913
-52.5568047850007 -7.415247487936144 -26.009322859774656
-56.759117112070186 -13.776157412544604 -22.724617768663766
-57.14606726075483 -13.192859934349 -23.117474242695533
-55.989786394197544 -12.58130823623885 -23.310214893905886
-57.226971713497356 -12.576574351234225 -23.066534834600464
-56.72273628065394 -11.307854758118957 -23.098469060627785
-55.463556404598975 -9.574115787897396 -24.01246946131681
-51.687383747926745 -8.269955211655839 -25.90348723268124
-54.70057917785883 -8.00438704578504 -24.316100127112104
-52.00898161507278 -7.385361530825593 -26.081794029808176
-50.76084407384499 -6.8838872763913255 -26.061933084442646
-51.597608295693306 -5.865824345094013 -26.090271085332084
-51.18982698690027 -5.993666512450351 -26.184581871979134
-57.69624914116917 -14.263020320058633 -22.17372899990117
-57.84281632236372 -14.717260725075992 -21.65821702105845
-57.54104359791803 -13.763722276882442 -22.79468276926054
-57.429971154007696 -13.549735314014821 -22.984968063986592
-57.97177172225695 -13.344339378820166 -22.400953545664134
-57.950427234449585 -12.367881513178927 -22.34830498418131
-52.53391254157354 -6.511264035021904 -25.53441290989538
-49.94917738937123 -5.628413301713621 -26.373071021652557
-45.78550567394388 -3.078596019990496 -26.919878567434242
-49.3446418106351 -2.5763348261974475 -25.920090023251802
-45.586088190679504 -1.9697175390358046 -27.324719246158494
-46.41041565030099 -1.894778667090774 -27.093304423045623
-46.71696485991114 -0.8655242261783049 -27.001767722670387
-44.52880076288805 -0.8686619475046281 -27.475977903942322
-42.65778585501604 -0.14331167675007442 -27.83271750406751
-41.87438714588925 1.6124934398708448 -28.211372886439218
-40.419383603117076 3.5798627485812564 -29.059920785938978
-39.09722531699297 3.2355439913032535 -29.022701895830533
-37.82618471891107 4.384243913477367 -29.494055208542605
-35.83142570532319 4.916047363842116 -29.068007658611577
-39.1408638892096 4.630415841561407 -29.46572707753867
-36.73880923326362 4.886800657911099 -29.488917787754602
-37.504062459430926 5.403352660225032 -29.726327191203648
-57.02259448933965 -15.138858434071206 -21.210598862041646
-54.02369891940883 -13.723061766567012 -22.027098186447024
-57.23548925972028 -9.12000410797625 -22.027162180867688
-45.854432950508 -8.414091379927687 -24.091350542662276
-42.780242759977135 -7.761337472386652 -23.805529882193277
-41.45973170287425 -6.873898087363178 -24.122614767402418
-40.88703583183734 -6.284489609758679 -24.37454653150647
-42.14204885898742 -5.698976801254675 -25.05318306049395
-48.95767312658148 -5.157507792535377 -26.505971816387387
-46.492692528207925 1.9907782251111905 -26.815784123443475
-35.93774960052881 5.965301286898217 -29.429821595449148
-37.086073161141755 6.231672060615682 -29.755491781851575
-34.7721345265369 6.804277346729087 -29.082312708145253
-36.54236338249954 7.243940943480513 -29.52744165306777
-35.39868510069293 7.206837811333637 -29.445551463062518
-59.82602068605372 -18.716079156447144 -18.515900746874923
-60.47084756110967 -17.964283849325827 -18.629040471502183
-58.69882971768075 -17.064507220412136 -19.330858589957362
-55.082372355176105 -17.52961432675559 -18.32944647855491
-58.57245336077486 -14.669278115568654 -20.98894164890186
-44.67962686137048 -9.616684125829343 -22.84924361614294
-43.770005966863984 -8.922312232097285 -23.15908507759168
-59.55252420142128 -12.218299918095575 -20.043849214218326
-49.669357080801156 -8.387649634935373 -25.218307291267298
-40.16493454572552 -6.771665595895996 -23.691848126458453
-39.78354254416716 -5.651259811746153 -24.39135411343085
-45.270531425251946 -5.020953898180313 -26.132347288781933
-50.977031979963705 -5.115381122604099 -26.058107172360295
-48.1225515743084 -4.357540261146856 -26.549218043315285
-49.49595807876186 -4.570981880507614 -26.437322413214634
-46.8513894543784 -4.642190269206144 -26.554695241690627
-36.836553574565514 3.7689119301029836 -28.82459539722936
-34.23416640154251 6.9974016433684225 -28.814541855563167
-34.564645926926374 8.849625259900002 -28.9899098923074
-41.62072257329596 4.894962175722314 -28.737933418113958
-60.308314938454934 -19.9893391749087 -17.689613542562494
-60.501900182198185 -18.980190022976654 -18.38086059169606
-59.50735715761371 -20.732564554342922 -16.838669526828994
-61.058030706242654 -19.127537935773656 -18.011329158723388
-58.745372904663846 -19.395234367535842 -17.731378952164675
-61.566463801007025 -17.97080944132587 -17.74217490265132
-60.61029338797911 -15.832278320281045 -18.80121909592611
-44.80581402653977 -10.691561059533859 -21.915763924626248
-43.39867052690965 -9.914902490720552 -22.135478398822865
-45.56437117532226 -10.073951834226492 -22.717872146336113
-51.95727630689647 -9.754737229520698 -25.124352657522945
-42.12877565783119 -8.826560559801843 -22.659248497864677
-49.5527482202439 -10.940954830350943 -23.30190746679034
-41.31454580818977 -7.697705782621467 -23.38540102989454
-48.189351046068964 -6.065424515039689 -26.068972270592464
-39.73292112141768 -4.529742077040008 -25.145375598286265
-38.297242726377156 -4.586352927211299 -24.590500087377393
-37.43444562299027 -3.653858665244637 -24.901082848648294
-40.27398074383376 -3.181531477690147 -26.026560245651332
-44.77826535086885 -3.8217688834897188 -26.713885340309776
-43.27449474015594 -3.305071965319912 -26.704283643527283
-42.80960780010901 -2.2055402148964713 -27.233191185238223
-43.593723591404135 -2.1360389885365403 -27.272190018692267
-33.838552803993736 7.340508505248236 -28.665858582959235
-32.809471769064274 8.531989911229086 -28.350669302313875
-38.50638758212999 6.322563866127354 -29.51557870295339
-32.546524853108224 10.33453788744279 -28.545159842386614
-31.694125508903234 10.143983411498143 -28.098839365177927
-44.28753635603212 4.976722076508873 -27.93589854657609
-44.23964622802588 6.20284809453882 -27.832561961852495
-39.797510679125146 6.981375380793152 -29.07450004841926
-42.97973728712983 6.34347953349521 -28.263375672194236
-60.923840670435666 -21.08278624399808 -16.880980030779693
-61.728686107870146 -19.53050352048591 -17.242023510173755
-61.214228756660816 -20.17263259055218 -17.432346253753508
-60.06938058642726 -21.257383830128088 -16.55355938581414
-61.34636594206781 -14.251348495139693 -18.04396729244128
-43.52429834510148 -10.914072702887148 -21.21654163172039
-48.89769688953441 -12.397951036820812 -21.74031550283684
-46.91254529406731 -11.515067857715634 -21.833459670931326
-49.72033430155779 -12.633222667948747 -21.824291213952186
-52.36096298495502 -11.623531116994888 -23.65946531255147
-37.180487081580175 -4.276883900062914 -24.31324528847166
-55.54380383380225 -5.9631930741622226 -22.51105967903789
-36.41697075005246 -3.031661275625194 -24.759121778744365
-37.18240481606069 -2.7829473700208744 -25.312230615133743
-38.2525749820913 -3.3221376794224087 -25.385243973809335
-52.49844341537859 -4.675120981551786 -24.74096157857841
-41.589677371683194 -1.0997763577454485 -27.331874785011852
-46.0226448560715 5.706704062707838 -26.887974675464356
-43.61178676572441 8.0204901327145 -27.319033044604094
-41.098487545685686 7.856770960278347 -28.349206332999874
-38.01263412838969 8.931415212063637 -28.82243874310093
-61.24715463339501 -21.648470824387804 -16.36575406296923
-60.63149554094544 -22.074961555906736 -15.89670047702341
-61.620176673810754 -20.893047449234952 -16.629412900758183
-62.21588209210146 -18.762995933872784 -16.505720785043025
-62.20213525577943 -17.702523151648276 -16.77881069922698
-45.407393744371824 -13.033009049657622 -19.81372329470949
-44.54078427233671 -13.054096639628789 -19.45122743950104
-46.465476147527745 -13.009449049324234 -20.218801112807455
-44.73780142518297 -12.016706323713628 -20.580525845411138
-59.20993694208289 -9.527269393654194 -19.8555505584163
-53.82260067316548 -3.2039645980940725 -22.932860477305915
-38.6609233684082 1.4902217779755527 -27.999440739819512
-30.662762572190154 9.610774229312451 -26.992152929137056
-31.122514727715426 12.209642012113544 -27.882126237600446
-51.0629553518236 5.253812359271731 -24.361112481218065
-32.94545354637432 12.050579986025577 -28.55489002572078
-47.80446035303556 8.708225240068726 -24.717105803859628
-35.172300628415734 13.20972501508935 -28.29250729945926
-62.09421082213378 -20.091665061259917 -16.3424824003082
-61.90457004024408 -16.876108961637208 -17.256811465614312
-61.89866095257706 -15.725052579102782 -17.210158385819216
-51.020625228039655 -12.689565878582691 -22.211227666936487
-61.678734305010884 -13.091043904949215 -17.358907958354965
-58.87452099014982 -7.343530180859207 -19.330405456086645
-35.82779037551976 -2.316768413499316 -24.86209404127016
-52.69989156193895 4.767695259117033 -24.045933810858568
-52.81113517430021 4.822312071706279 -24.06357066988516
-48.80848410813077 8.757580888550166 -24.14825241476326
-46.330488073599795 8.218966099809922 -25.75500471891375
-43.99352857187431 10.055560532584597 -26.098135662618557
-33.337765513473116 15.579748094777257 -28.443909737150367
-32.81426459175736 16.349053708617248 -28.48844126301096
-36.719010405000354 15.397119915809174 -27.239289699691856
-61.28732426101061 -22.646487986283077 -15.532024931860802
-61.14322457306877 -22.522994580632528 -15.623282393771989
[...]
POINT_DATA 1480
FIELD PCA 16
mode_1 3 1480 float
0.0019989723957302696 0.004235326022936516 0.005667590421341687
0.001687831931062047 0.004307006648234234 0.005747970715387581
0.001660496409024645 0.003947236663247069 0.005713335526702453
0.0017831177240709465 0.0037310245717750235 0.005667570130156899
0.002007385695936058 0.0038485300829188907 0.0055929973400281035
0.001826227120601984 0.0034091760221923303 0.005591758260278252
0.0019016958758834377 0.003522743785976267 0.005590036449104694
0.0018193071677397208 0.003313001724015615 0.005549182616748046
0.0022061057731216594 0.003324979008492245 0.005373087547913337
0.002005436388365206 0.0032124840361254206 0.005464181658219633
0.0021136218338880233 0.0029300672703991594 0.00530469275779492
0.0022676873582667656 0.0029162525612538496 0.005199836028372671
0.002241134291097305 0.002735674560924473 0.0051440848800635135
0.0018677931090450078 0.004994901968018685 0.005821244806605834
0.002059071807652918 0.0048219166758365194 0.005782468532538967
0.0019262360065124076 0.004591368233709422 0.005740017317915189
0.0022225686677360443 0.004600656100011734 0.005651245593480418
0.0023841759453658838 0.004120700842617706 0.0054095075082018105
0.0024330205486277263 0.0034982964692977384 0.0052360434296810825
0.001862187577727492 0.00304324357477592 0.005383095747164758
0.0025562056047712363 0.002894012905664469 0.004917496942389279
0.0021274622916194197 0.0027176024746595573 0.005158189181456712
0.001959262748389013 0.002496900194354837 0.005022253496496853
0.002328137858686286 0.0021188910960285214 0.0046995944543806595
0.002224548777558266 0.002165440920769359 0.004761872807512607
0.002013218889087086 0.0051475042720716055 0.0057613353601658175
0.001986861692134806 0.005273988559129869 0.005728543580010275
0.002039676425773714 0.005011303619904922 0.005808196342150038
0.002049038573293314 0.004945740625034735 0.005812979497122425
0.002259867780091103 0.0048460526676735866 0.005637742701130918
0.002476740535217319 0.004493777957056616 0.0054461107670397396
0.002381063632427314 0.002349760750836924 0.004779162449997491
0.0020352455281250187 0.002002751707216805 0.004705719859280088
0.0017226539928432243 9.110200149518425E-4 0.004175203540650728
0.002238099623052661 7.586804346909502E-4 0.0037684617723377964
0.0018406402693173435 5.02426841447233E-4 0.0039041778582683344
0.0019435353434272137 4.8546798564707563E-4 0.003822256365053407
0.002025812165117963 1.1930451543039733E-4 0.0035386350927098143
0.001818699660823006 8.95622781171126E-5 0.0037192633544752044
0.0017326472143128736 -1.953850880731884E-4 0.003708142772378864
0.0017954715373362257 -7.900223380231021E-4 0.003405404715109869
0.0018241228095737959 -0.0014429315919014937 0.0031535147672104016
0.0018092957919925913 -0.0013520911508026255 0.003334773603553808
0.0018528078932157682 -0.0017266217139501028 0.0032394570512143503
0.001901301698673426 -0.0018758558926416059 0.003303431481193032
0.0018458058249317727 -0.0017828996122523776 0.0030825534997185678
0.0018831950727598232 -0.0018820670697654225 0.003244953175179085
0.0018796601928289553 -0.002029910109015458 0.0031019385743105694
0.0017563499102265115 0.005359733303015228 0.0057349674832493066
0.0013107352916657063 0.004898725492833559 0.005774764849321436
0.00292599417870678 0.003218764410783971 0.004685725144325499
5.805138141492096E-4 0.0029512065276092714 0.005384204318811446
1.9952498622850782E-4 0.0026276789610610177 0.005461420972389202
2.788056815553413E-4 0.0022226832785196813 0.0053756617433651935
3.995593830282083E-4 0.0019648195157169683 0.005285777325543002
7.139434287634896E-4 0.001780753546317343 0.005048127073892084
0.001919939907565899 0.0017979402440438984 0.00460343764490598
0.002051426542382246 -9.017039022795183E-4 0.0028332474980750895
0.0019273240625144867 -0.002180721876549676 0.0031390890842690157
0.0019012204400484479 -0.002264540415817726 0.0030073327412366117
0.0019857637590706433 -0.002387218590085919 0.0031018011582485843
0.0019359145050077697 -0.002526794799379512 0.0028892166439795693
0.001977493577402098 -0.00251183134857604 0.002998677673765196
0.001823192976704729 0.006392865177853164 0.005618712777513613
0.002109099123923099 0.006201717211965227 0.005511684613322375
0.0018733116100171478 0.005894814937293864 0.0055906837104721776
0.00111617573424032 0.005861733399261949 0.005618957339544938
0.002213426383028676 0.005222280517200749 0.0055550726053157865
-4.525394430378694E-5 0.003434814060113288 0.005656125357787231
-2.6623917172301787E-6 0.0031387591996597324 0.005611976592776905
0.002992565307402506 0.004296296740935994 0.004908394159567731
0.0013907678936512914 0.0030281574936078656 0.005342320588102224
1.9382641486989622E-4 0.002178584413012226 0.005443462346521314
5.006254209997284E-4 0.001698195323611953 0.005214199838380532
0.0012996101389895207 0.0016279826003476278 0.004692113201741035
0.0022960604356377138 0.0018037607378317939 0.004480889712685155
0.0018833142555314815 0.0014581240051971464 0.004398621468853017
0.0020963928578448254 0.0015754324256993441 0.004405460328804802
0.0016338429468936856 0.0015345299698464238 0.004534787798876689
0.0018346639072528332 -0.0015282048838268561 0.003421062377691861
0.002011487003111784 -0.002422757477541413 0.0031074405669131323
0.0020561994533698485 -0.002892298112599955 0.0028056570500387956
0.00185157856201061 -0.0018315156351795556 0.002777831522237202
0.0017365145307241113 0.006714293388916871 0.0056125086270365256
0.00191269450690562 0.006499860244315913 0.005600117839512629
0.0015399533865492344 0.0067759514761258684 0.0055889039201294155
0.0020355116814304358 0.006532651712101838 0.005527633851890098
0.0015596829982469332 0.0064525367240314295 0.005609317458890601
0.0024350378343102855 0.0061518147454699195 0.005307624115672773
0.0025996973774210226 0.005510047521058965 0.005237206381640605
-2.9600612030319386E-4 0.003880240879216054 0.005776494526021903
-3.547487620227374E-4 0.0035764207674608603 0.005776910496666292
3.5563358850616335E-5 0.0036120729770180294 0.005650743574411092
0.0015841555622245968 0.003579127634939869 0.005616126844783913
-2.1406497325989526E-4 0.003102188662248962 0.0056941775001748
7.94433346716495E-4 0.003947515219466431 0.005655700929141953
1.9205828759880845E-5 0.002586178956950731 0.005556011022322862
0.001594485215171803 0.0021183976251197647 0.0048495284576771484
7.9130739694928E-4 0.0012485938949626202 0.004945151341181537
6.859184777988503E-4 0.001240850726547321 0.005065677772604158
8.720468121153152E-4 8.533022170502651E-4 0.0049060066681637276
0.0011254860056212066 7.927901588681415E-4 0.004589338921714131
0.0014726425563121282 0.0011572745768349327 0.004421136919271833
0.001381546536450631 9.257328460586378E-4 0.0043965329194544465
0.001523999149744629 5.155887649878043E-4 0.004159852982309956
0.0016095401077344123 5.122180599236984E-4 0.0040883432830187486
0.0020447476053851756 -0.002493513420540969 0.0030761938240329023
0.002149048847761123 -0.0027427180894339692 0.0029403823830693523
0.001873065510611739 -0.0022717531051908903 0.0028545097059448805
0.0022229487922238865 -0.0031839247779632744 0.002714292936512539
0.0022743572544996933 -0.00308970316681531 0.0027534535383907112
0.0018793182259054277 -0.0018715985816583427 0.0024290617891104447
0.001830292970410744 -0.002260422590951494 0.0021625570001167
0.0018463743931076708 -0.0024464913306244777 0.002596450592455968
0.0018142250832902955 -0.0022854343732148794 0.002308551746785784
0.0017134311003741624 0.0069841200587628695 0.005576692124192666
0.002172029630434346 0.006594993095341566 0.005411299892918827
0.0019006010414913941 0.006794320156784861 0.005548497101788264
0.0015666042919213422 0.006933736295009147 0.005578651187743682
0.003169425485734189 0.004930404049233759 0.004841560518314777
-5.962754852042184E-4 0.004012937432784729 0.005877744164276579
3.559041908338248E-4 0.004451970975910218 0.005733866922971314
5.006779066986737E-5 0.004155800697165409 0.005721865577961189
5.062877996087329E-4 0.004533390752992566 0.005742832030195003
0.0012873920364752016 0.0042207337229009335 0.00574583797245413
7.085211862196773E-4 0.0011130654816695305 0.005078461114756989
0.0029701508165651067 0.001965371848781503 0.004022309591097597
9.618126406115557E-4 6.478576715668828E-4 0.004846478254507551
0.0010383653987258354 5.466596087344255E-4 0.0047245751871453886
9.736897747749898E-4 7.650640954389841E-4 0.004769310795434517
0.002582659696607956 0.0015645919713806861 0.004102151818887151
0.0015626877914456249 1.1087787505233746E-4 0.004010728832416388
0.0019158237897726263 -0.0021363429675872445 0.0020063653004304505
0.0017919129085593383 -0.0027972734014372913 0.0018548226531337156
0.0018126830381132095 -0.002701658631319659 0.0022542439924575046
0.0019020541852807844 -0.0029617206954473973 0.002443192209973324
0.0017150413278917964 0.007110209290014769 0.005540641870398519
0.001575320686300253 0.0071348088942346745 0.00553853577813511
0.001920891153752736 0.00693094559202479 0.0054768207247538085
0.0025296396571125087 0.0062553113617874415 0.00516095958206295
0.00273182967928402 0.0059562919341334284 0.0050746523294926986
-6.58385588769222E-4 0.004819734396243822 0.00587664303648904
-8.349204877249165E-4 0.004872554904894249 0.005910271403359454
-3.7103502786992325E-4 0.0047487177112229845 0.005824227403949581
-6.05016743443597E-4 0.0044401687678053215 0.005877579088191334
0.003360774184930886 0.0032587407046380675 0.004334627194370467
0.002866530743767312 8.697242259249167E-4 0.0033663543483180044
0.001684997168810609 -7.955052540035024E-4 0.003705796619620698
0.002311778838382722 -0.0028466176878338975 0.002789687779194432
0.002376184247730641 -0.0035186165301867686 0.0024781236877481037
0.002213385037091362 -0.0021479455988475684 0.0013296407355850015
0.002231554248633477 -0.0035928322395922794 0.002471573408970621
0.0018321238661596997 -0.0031550963067012807 0.0010117179541113415
0.0020950488881283347 -0.003942220317396038 0.002118022097623139
0.0022308641099740016 0.00665399706346764 0.0053059814660821126
0.002804747195719272 0.005736796487302321 0.005061747446618729
0.0030591990774930067 0.005349015449332216 0.004892938529622487
7.940200592345265E-4 0.004558954752780603 0.005758288586152834
0.0035179951169228034 0.004456671642459873 0.004524618782461743
0.003536492571727017 0.002329929161909497 0.003745241295388639
0.0010870373323532264 4.135327606834036E-4 0.004731062881887334
0.0023419387589769963 -0.0020494757287387016 0.0011664321222252152
0.0023354058022390365 -0.002069349041250454 0.0011323729338186025
0.001872215678104055 -0.003208459611460047 8.60122340094795E-4
0.0018281129135321067 -0.0029446341819973827 0.0013719668636845313
0.0017314244222420391 -0.003425924663579602 0.001343421188125554
0.0022458668298158853 -0.0044328273180055935 0.002055124579661243
0.0022934831817874885 -0.004590613046068626 0.0020341576789055568
0.001997967989990821 -0.004521133688179232 0.0015685718692316727
0.0016130432389232065 0.007308734718887517 0.005516438526726461
0.0016024986906994119 0.007272493427343978 0.005523831614831913
0.0017422088318413491 0.0071868958426014665 0.005471614160460739
0.0020737484908499265 0.006863336803003483 0.005323532980727796
0.0037837815184284225 0.003071111765942421 0.003895701484904565
-1.9887772299225935E-4 0.0028179006325359337 0.0057009686754395305
7.305798398478621E-4 0.0010507995881835774 0.005091194668515462
0.0017270440203270624 -0.0011221054222590582 0.0037216234690312234
0.002315624272447279 -0.002201154527519133 9.876192435419743E-4
0.002174358236866355 -0.0023207489221424 0.0010527428401642266
0.002076264384769155 -0.0028526428635900296 8.178292530818846E-4
0.0017488460323914093 -0.003471977378172058 8.41014792296993E-4
0.0017877958636947832 -0.003878235401581345 0.0014682065608216657
0.002330296648639887 -0.004726942419836545 0.0019976310601711477
0.002225370762840173 -0.004767737499081039 0.0018144203565243064
0.0023316766544701404 -0.004900666105245934 0.00191228629758005
0.0016758479714180958 0.007287371909112365 0.0054703794438005875
0.0016281208070292057 0.007311976255991364 0.005504967596337245
0.0024630818743452136 0.006397707169174972 0.0050615451631446425
-6.208320089656591E-4 0.005110178383769103 0.005835368956418461
0.0034675465621134935 0.004845930207564996 0.0045326941151961
0.003846342012917916 0.003767034654877596 0.004077135534483289
3.20895900827466E-4 0.0018113645141394842 0.005403388248801613
0.0018012908401633008 -0.0013638574689106354 0.003644366200318235
0.0023324236212538545 -0.0023841759097398673 7.783754456662116E-4
0.0022162004531816747 -0.0023068916280060826 0.0010021648869553718
0.002144819694316031 -0.002432851878425674 0.0010142461036030314
0.0024087433709246075 -0.004339252991310425 0.0020967925014545074
0.002650164705267535 -0.004964369801034292 0.0017836578622618133
0.0024349396105347687 -0.004912345915072269 0.0019049708506225199
0.002374927145122542 -0.005087984152426941 0.0017495997576006295
0.0025468555118314373 -0.005303031734111949 0.00162227234766168
0.0017582965777138714 0.007208345432040358 0.005391034196193347
0.0015882556839774814 0.007230369873553097 0.005477233527974075
0.0017866042957677525 0.007202752333165788 0.0054044696184507995
0.0014919743197544964 0.007115606190069399 0.0055073306258459
-0.0010541801762681438 0.005218480683746031 0.0059147790964068775
-7.721168779924599E-4 0.004252632787793669 0.005933974750147338
-7.147472119604202E-4 0.003868713736406893 0.005933971755403425
0.003830879034731643 0.004246440694024367 0.004172333387569952
-5.884016996373708E-4 0.003358384945225173 0.0060101835746724135
9.492399735556541E-4 6.592654592705206E-4 0.004950845214198891
0.002491083363544002 -0.0020673130120144037 0.0010165357559936369
0.002411594944922063 -0.002250774272445664 8.392012849865322E-4
0.00226001882319235 -0.00252171347382585 7.689158542363046E-4
0.0026837305795645236 -0.0045519929231816626 0.0018661881068969108
0.0028851338312328783 -0.004875535747575292 0.0015687263489844222
0.0018931970064989547 -0.004839318283707497 0.0010690457709855385
0.0028368278062786546 -0.005228283294474236 0.0015790424232203434
0.002738785881046592 -0.005388700605171343 0.0015725954169051625
0.0020960407329323467 -0.005054291454375106 0.001277286211858415
0.002684974361195299 -0.005567590305273574 0.001438343149020188
0.001612376875459472 0.007131430010807159 0.00536547665412655
0.0017954214588552272 0.007120417956336401 0.005299370573203015
0.0020521368120134977 0.006890942367877675 0.005209061198501178
-7.112993609866975E-4 0.005701165387750008 0.005661797861560393
-0.0012475713854768404 0.004992042309766186 0.006033573279111843
-0.0011169464437450136 0.004326975987764384 0.006135639689901533
-9.710441393344269E-4 0.004635083098117167 0.005972514796545761
-0.0011625398548515595 0.004378481608086532 0.006206466293740872
1.565586428329679E-4 0.0021221375377407856 0.006002787480784162
6.803064379424534E-5 0.002209142328566328 0.005818360862212998
0.004174292148637624 0.0019130936456781423 0.003023301445371108
8.317128009988824E-4 0.0010380924409412 0.005341621480688258
0.0011590091306476814 3.3683986399596144E-4 0.004909852197960647
0.0027011811524739627 -4.277497895970346E-4 0.002475351263311328
0.0013358237694725123 -3.885353726868803E-5 0.004352048446647482
0.0017028573452654927 -0.0010684189051588999 0.0038179291567152504
0.0025337291115278223 -0.002295734154796725 7.54518531425842E-4
0.0024090523186391243 -0.0025408855799514294 6.431788581607324E-4
0.002309474016752139 -0.002642346164186828 6.352497599806053E-4
0.0021768286276564277 -0.002577694123581929 8.379195799201045E-4
0.001891202464389824 -0.003649150592226367 5.205122911152158E-4
0.0016536768796842484 -0.004348799386088203 8.537863497270652E-4
0.0028012434983401076 -0.005621906912995576 0.001371871688227875
0.0025853907642988394 -0.00558870777253756 0.001345252414357652
0.0017747091785062284 0.007092555827781189 0.005235468737511366
-0.0012238364298439084 0.005645179620976007 0.005858494164460987
2.0850105387639305E-4 0.0050885554203118355 0.005728001927834598
-7.461972835381358E-5 0.0057192710894826675 0.005568955397812214
-0.0013645584977541722 0.005305763409402789 0.0060140655576918335
-0.0013932325484565754 0.004944441724500791 0.0061466702790085904
-0.0011909145932576404 0.004650130785989671 0.006077191936072644
-9.626505937414889E-4 0.004017907047395049 0.006260300211429208
-9.32246044890459E-4 0.003962820675850196 0.006413712221278541
-8.925160789356621E-4 0.003883670646274705 0.006539809913347026
-5.842808182572877E-4 0.0034465098779292488 0.0063797907211893086
-6.086105970819503E-4 0.0033421061503756916 0.006238847343352002
-4.213260724051242E-4 0.0030681380191964944 0.006320689699801842
3.478972707713472E-5 0.0024103292799044604 0.006114803002382903
5.55800299983066E-4 0.0015136551358872674 0.005808934296226133
3.8143518180373814E-4 0.0018007177036734583 0.005950118109697389
0.004392909911598943 0.0026762891183579416 0.003195520598237532
0.0036586150250230488 4.104917963993951E-4 0.002412865538485749
0.0013181676342009802 8.447894811699874E-5 0.0047763739772362784
0.001931178228857752 -0.0018509248393561411 0.0033919367660301273
0.003045315527174806 -0.0016598383220675175 0.001129512499199418
0.002734890167942609 -0.002188397968955035 7.763561066397689E-4
0.00307000651515124 -0.005162481823738693 0.0012422591912261054
0.001639998605568216 -0.005027575936910455 4.533004228580108E-4
0.002981707669879898 -0.0053161226320012364 0.0013789464509589503
0.0023790063868274407 -0.005408315167359554 0.0012907061854868977
0.0028920948841377274 -0.005501290722867085 0.001408753529952406
0.0016297630262762518 0.007063568184554451 0.005271503295665588
0.002103618518485717 0.006762130845295136 0.005000754577014977
0.0013959374749185158 0.006806982572700881 0.005428804928865259
0.0027696113552752935 0.005903006312934364 0.00458519740491599
-0.001165467971192986 0.005820422040740997 0.005777428122573522
-0.0012981626107057688 0.005817062908248419 0.005817768223232752
-0.0013808133427558105 0.004843715572872601 0.006206574500286761
-0.0013603577936186731 0.0050026933385318075 0.006091403012312105
-0.0013234431869802237 0.004648996482350581 0.006216322900216792
0.0030712468497516047 0.005517887599552944 0.004697249416924815
-0.0011393558858526591 0.004369492608147389 0.006513170002420682
-3.1539875318608635E-4 0.0029862260030492577 0.006292019462669497
3.215722814255056E-4 0.0019545247161450075 0.0059809536057895026
4.940410561757046E-4 0.001653235720810542 0.005837171746075539
0.0014750849256443836 -3.996169503528561E-4 0.00432282897476071
0.0015896569415458958 -6.238425369571068E-4 0.004236135156762327
0.0016493104490995553 -8.879795294580694E-4 0.003974954914652353
0.0017265534680200956 -0.0010059937409499107 0.003959740870636386
0.002947532347998653 -0.0024242424623689713 5.192147668280105E-4
0.0026302742565871336 -0.0026171911222917722 5.146244405424429E-4
0.003165251815733076 -0.005275720818969544 9.946921296900728E-4
0.0031096748368136004 -0.005435977496864367 0.0011145954736452779
0.003025502770226157 -0.005593684244897063 0.001181820115863469
0.0029184913474748866 -0.005730960730143352 0.0011654827073512572
0.0017362811604213833 0.006993087046517184 0.005133659084229099
0.0018318652318122925 0.007011392478731529 0.005134436816746481
-0.0011679758835363846 0.00587032210060532 0.005703623721880651
-0.0014599572843519808 0.005366847533484135 0.006040429542827527
-0.0014452531675017068 0.005159635579812721 0.006122463026824804
-0.0012015973563954448 0.00461025405876697 0.006381584296893106
-0.001071837535561137 0.004213041453125273 0.006591840377155565
0.004145683629971508 0.003633989182870905 0.0036916794917292097
0.0010537979898963357 9.392980892335528E-4 0.004922844612917453
0.0013914332232093291 2.826753101096528E-4 0.0046287792764822845
0.004579003346176676 0.0018649392631458611 0.002717732487024488
0.0015572043148013035 -1.726291330599379E-4 0.004446661659163425
0.0013557404586137813 8.627846659143495E-5 0.0047601883677647755