# vtk DataFile Version 3.0
vtk output
ASCII
DATASET POLYDATA
POINTS 1480 float
-53.637276206515715 -12.637032473613846 -25.25691929347242
-52.51468808698133 -13.015273693737802 -25.171498291461646
-51.36072495833224 -12.088173852762223 -25.913928922287727
-51.23513672475341 -11.46102818846085 -26.382239348586765
-52.56774382382631 -11.628220670024008 -25.86698519922274
-50.44337076618207 -10.59419612283078 -26.910577647495657
-51.12156966159507 -10.8482714277241 -26.652967840045275
-50.14116205484604 -10.33044471848671 -26.95963720398192
-51.98320012229598 -10.128352080782427 -26.301533005169237
-50.65747926721134 -9.957519388158204 -26.970423381928374
-50.33867715779601 -9.114607706557658 -27.067874835699012
-51.128430564233646 -8.981910110296004 -26.656548169394934
-50.47323620157429 -8.496405425816857 -26.920375864301565
-55.24961232647482 -14.70462825729364 -24.143335331579173
-55.56131076894013 -14.118772515300464 -24.586438700002795
-54.34484934767204 -13.607950571643343 -24.695717526450675
-55.62524410484788 -13.432703721228197 -24.4894138351505
-55.06635435716131 -12.086752717605194 -24.396683275376787
-53.63627537631159 -10.431087940866867 -25.18198371006778
-49.6135770201451 -9.536838246809621 -26.922286227142212
-52.82063205478165 -8.739826740308946 -25.299550091442402
-49.92626915455816 -8.49367925243914 -26.972428325367524
-48.73927646689891 -7.908922823280067 -26.82754064654467
-49.60375632579618 -6.651649333594477 -26.708166442561087
-49.1869591099643 -6.8314313437448275 -26.810059911873655
-56.293730610112114 -15.009253895341411 -23.587390439787104
-56.534406155009876 -15.36748108487539 -23.02006953307068
-56.027925080635406 -14.62537230744213 -24.273963010995093
-55.88025413446979 -14.447783000684325 -24.47514749567485
-56.495929625861514 -14.052679646200195 -23.824735916606144
-56.4383730731945 -12.99372926085452 -23.703537530903013
-50.55673307159214 -7.309280485921802 -26.28971118228189
-47.996378005498286 -6.433341695867743 -26.922316992078613
-44.334873535058065 -3.3348356729637607 -27.16903010971346
-47.80831223488489 -2.722636743724511 -26.24003620561717
-44.28069276293367 -2.040698944742039 -27.44243061799151
-45.071257783628155 -1.9604479949481979 -27.234939247724956
-45.48389614051584 -0.8216522774916913 -27.127391224411316
-43.45408020839847 -0.7753710987958833 -27.55067960062713
-41.84655164473688 0.1023935020711686 -27.849321967943467
-41.3741336186982 2.0185525140966574 -28.14590598305354
-40.318977047229154 4.145237289691891 -28.85952698338874
-39.13606768625454 3.8950404555038665 -28.814580298086348
-38.171459647166735 5.162254725530982 -29.198256675005123
-36.46917646441151 5.834026593137864 -28.740118513216142
-39.32100391223814 5.29672366609781 -29.192193689487006
-37.27966041216879 5.746955702696277 -29.155794287410124
-37.98731121437067 6.187639775165372 -29.38477146565536
-55.79415761028478 -15.800591373104876 -22.452290017754052
-52.577586364775215 -14.823808186683792 -23.188051373730534
-55.64174613684482 -9.398256006068774 -23.061983647436698
-43.99706582088329 -9.800460011266534 -25.072393379734716
-40.9098833730398 -9.144535324677472 -24.92346968459445
-39.68056571376346 -7.993652694310684 -25.210097436493424
-39.20915602363639 -7.193897769630051 -25.398513227874922
-40.561736936568245 -6.444009557820203 -25.866119089031034
-47.07402839896283 -5.880532379743621 -26.97329069679851
-45.584450640477826 2.287562349260088 -26.907460562167227
-36.66111176239586 6.846410982318438 -29.050998158500445
-37.68561652700322 7.017324930652496 -29.381183273172073
-35.6868650556877 7.72840822397873 -28.6602191286837
-37.26322656178235 8.021591346844481 -29.113051043118734
-36.27758175298059 8.073507416482858 -29.0048423799663
-59.14614854096591 -18.62661713591525 -19.636036660535815
-59.743586505869224 -17.83473848487934 -19.824309674603462
-57.83514497935819 -17.226495148785173 -20.44719749148274
-54.40402064172053 -17.90508706255711 -18.973595929199707
-57.35766722452453 -15.09928005672969 -22.295338296421882
-42.72067691069452 -11.45595090012251 -24.03387968508915
-41.808396597351624 -10.642432768146975 -24.352270440974653
-58.33419037145318 -12.21009715877888 -21.192212916054775
-47.70717829356067 -9.659332604104346 -26.16768205032898
-38.45253846967391 -7.864894043100473 -24.83709162430387
-38.27952051308652 -6.325000112467945 -25.35803187004315
-43.636494728297606 -5.661239956165579 -26.651977865561758
-49.07829190757025 -5.749699598052548 -26.586057447014493
-46.37979140725663 -4.899945779026654 -26.935769518585925
-47.66128671271768 -5.158305013715089 -26.859537186155645
-45.148761491760325 -5.23070560518307 -26.97184338527866
-37.21478872196035 4.60354167970814 -28.57578101131942
-35.21623274909704 7.947364138693569 -28.381983141933347
-35.602688936202725 9.674324560178635 -28.48024469287559
-41.47367122091658 5.38824395405827 -28.54832996644495
-59.801856989259484 -19.689769787013212 -18.7339536477432
-59.84772321062448 -18.809181255098007 -19.55708431341014
-59.18843788719794 -20.301489954599262 -17.628688451262665
-60.465614093148396 -18.835381377324634 -19.18888265585297
-58.231319345986165 -19.235888540992978 -18.601503151919854
-60.97643564278916 -17.558250643055 -18.90603640412101
-59.768650298591986 -15.663378325117872 -19.97941513992628
-42.89410231489406 -12.758785177928397 -23.11981222609348
-41.42139193002555 -11.971024586966145 -23.40517022931492
-43.666558526326305 -11.885102323399385 -23.85012257139797
-49.971770094878245 -11.138307244546994 -26.303183134086282
-40.18317219792485 -10.622330658179477 -23.92452355270514
-47.77225877458714 -12.454686675806597 -24.38018736947469
-39.446463483835394 -9.11978679653931 -24.598369580114284
-46.31388877728692 -6.955008411329626 -26.68416239597429
-38.45359387370206 -4.845440418911777 -25.892776403377045
-37.08646508153929 -4.853301949973611 -25.438934100833478
-36.47345906806773 -3.590243315647789 -25.624251024388382
-39.206456338261376 -3.2488697599673837 -26.511481099190867
-43.29302523390408 -4.191508905904332 -27.05480018216042
-41.964907822770435 -3.532643927698563 -27.039851282560676
-41.69132631778963 -2.2089206714825598 -27.41162693609071
-42.422315308717195 -2.162653981962061 -27.433362054231356
-34.88409877820062 8.299307049360333 -28.21088936437089
-34.03539999127409 9.49686425188665 -27.817525640713043
-38.89439107159174 6.989659274943286 -29.179693300337124
-33.90380435522494 11.212053965476073 -27.917993475758703
-33.134232063979105 11.097476040805129 -27.460291379924996
-43.81967441664505 5.372189468564982 -27.854726695229456
-43.84992134597829 6.600703857565965 -27.72619044569638
-40.026707985834314 7.534259095326573 -28.767720480505695
-42.74853029537786 6.768862897016446 -28.094774204489795
-60.57444904614655 -20.570039580463238 -17.870385387049566
-61.26821733881664 -19.024306862042017 -18.372462536182002
-60.74430981044827 -19.75463520387989 -18.54536422036755
-59.80396643779467 -20.724488451255816 -17.366507387789113
-60.527412565736014 -13.802057901358488 -19.12962232675941
-41.596952407398106 -13.222919008827049 -22.48057938604177
-47.30434441494552 -14.0329632641669 -22.731352314809214
-45.18718887695423 -13.345237525497389 -22.887417759295246
-48.157549000364945 -14.19054552556331 -22.818159119069072
-50.593508830242946 -12.989711218170658 -24.87170839047788
-36.10319771303484 -4.4155270848401 -25.181409344457634
-53.86595982908879 -6.029792392740085 -23.271207296812566
-35.6430837468562 -2.8350083986148484 -25.461837396053166
-36.41591679915889 -2.5350999356151998 -25.89970790959114
-37.30250591200144 -3.2603726031939853 -26.001053023278498
-50.73555210023935 -4.986513618047497 -25.30186881537794
-40.74270075546428 -0.9109129400102117 -27.46730050227083
-45.41501145927384 6.105857746490694 -26.896941823359057
-43.40566042534399 8.427366341474603 -27.15502174216885
-41.19163597496838 8.326593756002572 -28.07352708925976
-38.577321012749344 9.52456848211116 -28.412905936686467
-60.99312447499383 -21.007726447604394 -17.313534719858048
-60.487080224589995 -21.370334748439486 -16.67699493421539
-61.29785549981799 -20.276968373768945 -17.662014918897523
-61.83786878464647 -18.03138218788534 -17.552250071428883
-61.742282804167374 -17.012661908190587 -17.849113911867715
-43.81231801477369 -15.3958050648539 -20.810343796606173
-42.9429653810126 -15.595693790569921 -20.443133360911585
-44.909351478464224 -15.116281881128733 -21.185907852106062
-42.96691079149135 -14.359692033276074 -21.715010933232662
-57.86407581154089 -9.301119451460801 -20.833876098107105
-52.2509238973121 -3.0000140877550745 -23.46432382146139
-38.50199010732958 2.0883619417530017 -27.95019356128954
-32.108587588063216 10.638900423717288 -26.385773113573183
-32.67943954406095 13.056012018180253 -27.136663922960192
-49.95367158525283 5.776578915291975 -24.72255144012392
-34.2802569358513 12.762324506764955 -27.890353873759835
-47.20550444416504 9.15570478782074 -24.799460641075445
-36.22170844072836 13.693117213110925 -27.683568220127366
-61.7918493124222 -19.36084837890954 -17.36975083842787
-61.33959920925198 -16.29700202518459 -18.35127830426286
-61.279243414296744 -15.101024085587241 -18.265349375078994
-49.44401219571906 -14.132056525123188 -23.27628282873604
-60.86351839350677 -12.416280089468325 -18.35329240216479
-57.487951159874434 -6.834968826987987 -20.162568973034187
-35.23139731494491 -1.9878464389001445 -25.4963177661986
-51.384676066685074 5.33385219744567 -24.53633986574553
-51.480258275830586 5.384676533168612 -24.5689018217132
-48.11226765099159 9.228006729019716 -24.31842785299026
-45.851343335369975 8.64248798546635 -25.74817722794356
-43.86593735770839 10.453918940194358 -25.92156533505859
-34.65388654442377 15.955652762601375 -27.720021179733646
-34.20346970792986 16.683045707692745 -27.732561971455482
-37.614862591213054 15.68410996705528 -26.619653159969975
-61.19939659647652 -21.833338092730905 -16.349189058795858
-61.040782711598006 -21.73564521865316 -16.43448858629444
[...]
POINT_DATA 1480
FIELD PCA 16
mode_1 3 1480 float
0.0027958105018587322 0.003917646265755958 0.01108450089678345
0.0027275031095157164 0.003918269818588944 0.010943336932738024
0.0025205285902835935 0.0038145978439363365 0.010797151057733432
0.002436348469057344 0.003762796499078648 0.010789059254010875
0.002618728463976984 0.003798068798324581 0.010914966372514866
0.002291180504322654 0.0036877548771912317 0.010657580266749681
0.0023847190397479788 0.0037123226393155854 0.010745071297474987
0.0022558908751579955 0.003668944344318835 0.010588081668131055
0.0025032345811730437 0.0036459605298586506 0.010719585118269143
0.002294663314421559 0.00364013745438114 0.010622994792620894
0.0022462900520062072 0.0035740899455248146 0.010488303661366067
0.002373563865790969 0.003537300931223329 0.010511348184503758
0.002274374730672227 0.003503613929880975 0.010401808188190895
0.00309339129427409 0.004174513389970262 0.011349746921239565
0.0030450494175582113 0.0041331063411292395 0.011414019999784239
0.0029384821682398084 0.004032147339414049 0.01119698984948327
0.003062080273913119 0.004069882495478876 0.011328316059759647
0.0030331969550305305 0.0038977306477179846 0.01106354041959066
0.0028036497450024244 0.003674355836901497 0.010793833419910847
0.002204678362512314 0.0036117722317712555 0.010404474178312218
0.002719464363550386 0.003443928831228583 0.010464480515891541
0.002215613081744172 0.0035116637899679157 0.010330106997045868
0.0021127941857622353 0.0034652416263260804 0.010053482341375947
0.002200645456832095 0.0032873667168427253 0.00999464593232894
0.002145838190023549 0.00332911222562294 0.009978457454760191
0.003254086189735931 0.004258857189780935 0.011431606351137144
0.003359502426080521 0.004310234731368684 0.011399318328919763
0.0031285080072395687 0.0042030888809449 0.011479621365123408
0.003086448666351093 0.004178088197201494 0.01147574857032333
0.0032294278672213624 0.004168822776150001 0.011396577047801639
0.003240918140379652 0.004055015877371392 0.011244470669899462
0.002363101631588476 0.003314627505097505 0.010130669381105439
0.0020027867902714163 0.003304219332297069 0.009773998239517679
0.0014991288256484933 0.0029080155878957892 0.008908344965143545
0.0020638485437240307 0.00246214735326003 0.009057348164536183
0.0014315248391437987 0.002640073245229292 0.00878471234589544
0.001564260495209495 0.0025443610284083622 0.008822420512665314
0.0016417983513478316 0.002175126614895713 0.008676847835420703
0.0013054711900790336 0.002371392776902713 0.008544920683016636
0.0010354783075533069 0.00230787954814274 0.008335940866696935
9.244542516768122E-4 0.0017921757348168521 0.008130188923842796
6.571711559750054E-4 0.0012666202223458403 0.00795241733867971
4.919307820258027E-4 0.001527704826972088 0.00789802738281883
2.928249938253064E-4 0.001269668905413929 0.007794281205381567
1.846117740031326E-4 0.0013327063992733498 0.007549367671086477
4.6564295959681623E-4 0.0010392145191325593 0.007843821916707716
1.9129868421521997E-4 0.001225258145259812 0.007688873517285456
2.5467725402097865E-4 9.549420853216427E-4 0.00773458254128518
0.003397447068126146 0.004308695450436659 0.011229532207212399
0.0030535195018314607 0.004073757330231072 0.010780223141266587
0.0032884610526170833 0.0034986339715792395 0.010533142266198517
0.001974769790288231 0.003739253934029131 0.009200526752696433
0.0016773695574224313 0.00388580333044942 0.008591012420762515
0.001444660379249745 0.0039018811183480504 0.008343146508794265
0.001318174364874957 0.003881192432472289 0.008240798942800148
0.0013573807771120328 0.0036633404084136824 0.00848034480921832
0.001890160734656306 0.0032476635924724136 0.009577668322676496
0.0017327138110472143 0.0011987465196356085 0.008168752697065068
1.729755691661066E-4 9.632408547559982E-4 0.00755079348325399
2.4191879750801916E-4 7.262890926342311E-4 0.00765528633512978
1.7346252605361813E-4 8.494342446012695E-4 0.007364846513281006
2.8497737113275913E-4 4.766891133369967E-4 0.007513209860865076
1.8191766787358077E-4 6.327089573841358E-4 0.007445912037838819
0.004078930151691852 0.004877231957422929 0.01143874887479663
0.004090270077881161 0.004860788138849153 0.01145370517806325
0.0038561612787350657 0.004606250349114917 0.01127603566997521
0.0038539017903909305 0.004363721533068405 0.010593803616427798
0.0035294259068285937 0.004337080588978181 0.011338695234526673
0.0021080330643659614 0.0038981969043495462 0.008947980862956088
0.0019361230164142477 0.003916673645138635 0.008767506732191514
0.0037669391233986693 0.00400876061983047 0.010918733226214205
0.002142670733671893 0.0036356202296802783 0.009984569699154656
0.0013662217257411047 0.003999519498357505 0.008068165948064643
0.0011736024592131351 0.0038827173275442182 0.008028550408784463
0.0015519100469390432 0.003339449011187313 0.008998295529208134
0.0021589799738913062 0.003119524806573636 0.009762648300651277
0.0018041838168008065 0.00308304640756169 0.009336873074632447
0.0019633452806338773 0.003077451906785334 0.009534037038825268
0.0016610453041636388 0.003211087651939492 0.009223242461184425
2.926996084754403E-4 0.0016036336846917435 0.007664088221780461
1.8981174906969873E-4 8.659420103522727E-4 0.00726879346639946
3.0166983755014633E-4 2.488226245351189E-4 0.00719468204503192
9.108694966776278E-4 6.921424711209575E-4 0.007831960714386885
0.0042705359900669735 0.005047770851345234 0.011449657347874688
0.00414312429994365 0.004977572762980217 0.011522128393209327
0.004395675988802859 0.004989169447485743 0.011237934781672348
0.0042464264963592655 0.005048033953186652 0.011509261395840235
0.004175322703470828 0.004812752450451874 0.011189703042101967
0.004319677823061612 0.004938899728494699 0.011361198643058753
0.004058529598275761 0.004594200933144196 0.011251644447314817
0.0023236249831786607 0.003961563585027499 0.008929422455575611
0.002120936108620969 0.00401552788415252 0.008634772511981727
0.002228511181547912 0.003872585335599272 0.009128866766631985
0.0023441012935276014 0.003730562850143348 0.01053955446699068
0.0018491122225986728 0.004037799915825134 0.008396047812731644
0.0024774002539567712 0.003821680666027031 0.009990022936844402
0.0015816858856464834 0.004006281034973457 0.00827842662994457
0.0018723347591085941 0.0034008996314160355 0.009545890438851777
0.0010320653369493827 0.00369049751859532 0.008047310228232055
9.446905311203491E-4 0.00384329255066946 0.007763676832346891
7.827141842840006E-4 0.0037483830567610486 0.0076260379019052376
9.788252302027388E-4 0.0033319077797290845 0.008134786812609372
0.0014064428677506402 0.0031548817397394143 0.008862149262840626
0.0012346078632648528 0.003131658631757153 0.008612723166708885
0.0011070480248564652 0.002912281687666587 0.008509507447149824
0.0011970920804162716 0.0028318213643443472 0.008589744361664757
2.1015138650288097E-4 8.150556858649012E-4 0.007188971615859907
2.7294453976253405E-4 5.877442920117597E-4 0.006961966626133209
4.568631654356769E-4 5.437037933968626E-4 0.007677526778078166
3.2660355149384675E-4 7.21124420817317E-5 0.0068741862104063425
3.4246753042375873E-4 2.4753888961576896E-4 0.0067163592137596635
0.00137935697745761 3.7733469076667525E-4 0.007788772654293781
0.0014305776166276612 -4.2905259858241536E-5 0.00760567195483585
7.163381688128837E-4 1.8939458464787933E-4 0.007601817653187854
0.0012070374081341118 4.5458385672114895E-5 0.0076258731139289965
0.004466751849817605 0.005230259065268279 0.01144646172878716
0.004433339685160796 0.005146450593533282 0.011431059221551736
0.0043720211010473495 0.0051779035068804085 0.011503501179461877
0.0044843435236691575 0.005112086440682197 0.011296397280277912
0.004235015872772587 0.004391993218621107 0.010989124087408491
0.0023451974967651774 0.004069335902830861 0.008599561539069501
0.002738023033012688 0.0039010453901287137 0.009783011504101151
0.0025446540762169875 0.0039108071981099 0.009360715325638681
0.002788926783213648 0.003903999511379138 0.009961633116345797
0.002628578670926642 0.0038754779685304013 0.010589806175457158
8.600215099574108E-4 0.0038810863590960625 0.007543158281654567
0.0031338162079171047 0.002849129156778592 0.009794824244912174
7.161877262384664E-4 0.0036673298187737424 0.0074261731412159126
7.047898402842058E-4 0.0035558362367290007 0.007598307577280186
8.171992907974709E-4 0.003576351874731313 0.007789701856815571
0.0025214956479722786 0.002822522984128977 0.009612765064688613
9.674480964642319E-4 0.002682927422469683 0.008268592658452204
0.0017918728565345335 -4.639388657553892E-5 0.00758522889914844
0.001486982331739302 -5.682198141348835E-4 0.007329766270826899
0.0010195370894047877 -2.3269397658693848E-4 0.007445500221088214
6.558048056022787E-4 -2.1045618010888628E-4 0.007323870020202596
0.00458721298839893 0.005328580147010438 0.011417042347365652
0.004646738860586361 0.005271124233140291 0.011290769845199031
0.004552702816600185 0.005288259998534962 0.0114245850801263
0.004591166987234456 0.005036568493601162 0.011196298492645671
0.004531262340353304 0.004900053830606738 0.011150141566970345
0.002872230065881177 0.004040815816620818 0.008901931905589968
0.0028841201881957493 0.004098258580629442 0.00866682183091986
0.0028658529822318257 0.004002688433492181 0.009156073074016014
0.0026246677680385696 0.004042296232542616 0.008814108690907057
0.0038035494902682763 0.0034854274125683325 0.010415307632694423
0.0029793200677021435 0.002196360944596858 0.009102585257361108
5.705594149480552E-4 0.00215365050665676 0.007854753206308579
4.686533576848724E-4 5.461939343716024E-4 0.006371706705035139
4.831505658753849E-4 -2.743513732322795E-4 0.00647387726761936
0.002840877413803642 -3.9728477719232284E-4 0.0073539029579185195
4.6783448854608237E-4 -4.8723986930556697E-4 0.0067877471893758624
0.002409123690769265 -0.001252448571494833 0.006948104378381966
7.420998587796782E-4 -0.0011223454617902806 0.006792988796254244
0.004626626623728881 0.005210920982538112 0.011295432252244223
0.004420946763333274 0.004782908677874127 0.011149669942997192
0.004423138306667102 0.00460868929436383 0.011015416005794356
0.0028085288352227684 0.0039279706945038635 0.01024165072240225
0.004377455185361994 0.0041748548235673675 0.010724132893898928
0.003910402254198182 0.002922915475377375 0.009832093254732374
6.623738709235418E-4 0.003522787101258338 0.007316934766561392
0.0031350119573056064 -3.835471606939057E-4 0.007333573549587161
0.0031582608349559143 -4.1291361722214286E-4 0.007310660747436083
0.002621113616380664 -0.0013701503526612484 0.006870376420511114
0.0020601857175688203 -9.270945778845687E-4 0.007134216904165143
0.0017600958786596979 -0.001273084968768895 0.006962963644533723
7.351647903280454E-4 -0.0015783892382748143 0.006575536154471344
7.423410847614596E-4 -0.0017316300117123375 0.006508958433343862
0.001106611513358431 -0.0019480455286331885 0.006527863643319441
0.0047556358682442935 0.005434685993429073 0.01133783739059954
0.004729399441657645 0.005398314114651314 0.011331291814042452
0.004738459806377126 0.005401029181806073 0.01132809171408897
0.004747657141590147 0.005299356235022703 0.011240779322389975
0.004307786549691758 0.003363197690175267 0.010087115337044596
0.0016355206748707141 0.004147411312979003 0.007946651484920379
8.399916464562358E-4 0.0038726870655440937 0.0073681639122565356
3.5580867794351257E-4 0.0021278349894006793 0.00751467347131144
0.003259558487580378 -5.748945671977989E-4 0.007205129575157625
0.0030330038382644273 -6.438172834096514E-4 0.007183763207683306
0.0030313370008966133 -0.001148153701871487 0.00693777432816076
0.0023989517741576857 -0.0015586698752726147 0.006792202472751736
0.0013827129452586061 -0.0015033999388942337 0.0067932878357863866
7.723564838522539E-4 -0.0018813607180980046 0.006453334108320736
8.965060814994808E-4 -0.0020301783181285293 0.00644682486159926
8.357343319004089E-4 -0.002107854979438124 0.006409765623410176
0.004812587378879368 0.0054476519414162474 0.011291574363199414
0.004772993281603691 0.0054452851026774015 0.01132908186399448
0.004861675723860369 0.005106216341807829 0.01096985654665111
0.0030990938982479407 0.004063687749293704 0.008899886122299442
0.004617899815780524 0.0043875095973996935 0.010697133090947853
0.004561254547628693 0.0037904239972855044 0.010290572302557305
0.0011424257403256414 0.00405590079606217 0.0075221186924894394
2.821946033906454E-4 0.0020009135797499703 0.00737341493251105
0.0034508358350245284 -8.029095628877977E-4 0.007062910331438383
0.003129002738316019 -6.541396574694917E-4 0.007167623871298876
0.003013471859643714 -7.450864870825294E-4 0.007137881300970096
7.044137414627181E-4 -0.0013527085843904137 0.006367079812339809
9.228961858748929E-4 -0.002051780093635822 0.005989247245917264
8.454313829260378E-4 -0.0020698862882079175 0.00629540009840625
9.469405100457213E-4 -0.0023401045783403474 0.00626109366786933
0.001051903019110319 -0.002544242267508743 0.006020052672999992
0.0049035082578053725 0.005414855358858235 0.011175847353299522
0.004807206130125382 0.005347453411205566 0.011203308210030502
0.004859513482822237 0.0054316011917884596 0.011232542257359479
0.004720181590979602 0.005205164290893719 0.011142652611584336
0.0031025790464047753 0.004194950529191186 0.008333095926974744
0.002465560437167705 0.00412760008824329 0.00846727014492329
0.00219644278459887 0.0042193447941710855 0.00810769335336258
0.004747088410744324 0.004082917972548021 0.010377367461794356
0.00175204451386611 0.004460678317982646 0.007273536249829212
7.498153802753521E-4 0.0036948862995506895 0.006965340818297543
0.0034337004252652705 -4.6226316058100295E-4 0.00728211901596817
0.003489447569462722 -6.699703866105926E-4 0.007144087509831927
0.003365190871856586 -9.224657036800516E-4 0.00700463615005744
8.390815309221016E-4 -0.0015030983192301948 0.005876673656646228
9.953458601708507E-4 -0.0018698630312216722 0.005535037425982419
0.0014306867001472347 -0.002437826741413998 0.006262087001027399
0.0010638609533158907 -0.002335795939383678 0.0057155429117055475
0.001103393776299769 -0.0025799165542106962 0.00582630379281541
0.0012373737199640562 -0.002520410330960958 0.006187987565100956
0.0011949187670190111 -0.0028433471579734633 0.005788919346097532
0.004995748966073865 0.00524798055530517 0.010942661486365095
0.005048795863400599 0.005338669043040745 0.010976636096608558
0.004991353613625597 0.005296071439026155 0.01098825925540238
0.0036453487521416975 0.004097475976189227 0.008529774032712238
0.002867780008533824 0.004309729652271766 0.008005213399310467
0.0023206040511859114 0.004499261629168249 0.007470531850969096
0.0026861285066693105 0.004191922840793679 0.008322692181249626
0.002222457172956568 0.0046813356173333225 0.007012860147201688
0.0010118296551325319 0.004556764793858467 0.006155660361578899
0.0011627049707389626 0.004384202685641227 0.006689133449524999
0.00471514142602949 0.002603408795054 0.009246972480009316
8.926873344273288E-4 0.004057843259049464 0.0059010799187135575
6.974952843463099E-4 0.003661985176851355 0.00636890392072949
0.002975846794299665 0.0011627999586581164 0.008309788814875069
6.151745928118713E-4 0.0030538674496137404 0.0075399724114190835
3.4481349789560774E-4 0.00227766547377219 0.007371638083438993
0.0036827770094941636 -7.362229510333061E-4 0.007118798570922617
0.0036289427673223537 -9.813361147713031E-4 0.006972036734940559
0.0035251593867090965 -0.0010719789280969204 0.006917663437937545
0.0031966794429796027 -9.364135887527118E-4 0.0070149619660253145
0.0029201012274759283 -0.0018807687203631763 0.006591256117976425
0.0018139823144353061 -0.002162679811185067 0.006473679895751004
0.001242217495198018 -0.0028773576761340863 0.005651905585518536
0.001231035507633735 -0.0029209983323080484 0.005802743820929822
0.005202216749389765 0.005277331807626167 0.010792636453126335
0.003391491460246849 0.004258929745747191 0.008060821018686869
0.003194044709352231 0.004014187265668814 0.009689094889454297
0.003812123884526429 0.0039968590422557555 0.00922897822869678
0.0030524848632759237 0.004382427395264013 0.007789607022534246
0.0026992152004873963 0.004539597324821031 0.007420918567263105
0.0026075428054610026 0.00436738854382027 0.007840694578176441
0.0019150907477829197 0.004760050464854537 0.0067528071991923636
0.0017198371758731582 0.00490375924050434 0.006392847028543828
0.0015205952840491462 0.005000944899401713 0.006085405632334681
0.0013419505740318045 0.0049182266352072596 0.005827473345769534
0.0015383548281901452 0.0047039854083255166 0.006674343445636789
0.001278193642191179 0.004799383379234871 0.006215384338217142
0.0010546369105578503 0.004689106030011214 0.005857524067860551
8.409982897958729E-4 0.004430200895894848 0.005939020958042397
8.884678474175752E-4 0.004536638939682477 0.005955543886240578
0.005115782371672224 0.003119592649067397 0.009381517424000736
0.004256312908423493 0.0015216169291768133 0.008507436806546436
7.103070772315617E-4 0.003530311898652884 0.006065205840709021
2.720762138983817E-4 0.0015084106461719536 0.007174066573936123
0.004033738974061609 -1.774464347828991E-4 0.00745148899926369
0.003888818748087143 -6.520208258023243E-4 0.0071839837408628005
0.0011450429830864473 -0.0022126873782143475 0.005211162872968425
0.0019068197794464084 -0.002852137389765704 0.006064482572201088
0.0011543620285359077 -0.002420421080824173 0.005456323130387243
0.0012245331347401727 -0.0027961835685487825 0.0059315356493543124
0.001199033554995943 -0.0026866038629440405 0.005594125003072491
0.005179814416785275 0.005167640476720094 0.010721491817343306
0.005367672273630648 0.005177387004120415 0.010520131699554947
0.004730303044702578 0.0049133755707889285 0.010790700095779886
0.0053851987955700715 0.004842342327465613 0.010175086892538557
0.003564956490829732 0.004218754224171045 0.008118050422607053
0.003509642473880601 0.004281561972916801 0.007931539795952134
0.002510920614550869 0.004704237296519755 0.007005185599682855
0.0028208531851050414 0.004406084106681044 0.007755691897088387
0.0024407686656016787 0.004626274270340159 0.0072149343366076585
0.004838058211878239 0.00469996128157381 0.010688733801498585
0.0018058160873237457 0.005032094745421898 0.006164031538307038
0.0011958567761422062 0.0048297430160497215 0.0058528037463691125
9.353669200933623E-4 0.0045888206285177756 0.005800489936075505
8.853883585486588E-4 0.0044716476204004485 0.005837605286156767
5.09035207878523E-4 0.0030265119710753893 0.006948738823649928
4.762646453076466E-4 0.0029395960396525495 0.006732538584200697
3.9833544643186737E-4 0.0025229462240285556 0.00717267763657919
4.429141114253541E-4 0.002526438316758421 0.00675297874229321
0.004291395388420654 -9.28933364935913E-4 0.007030664892210838
0.003953678803962735 -0.0010910793345571984 0.006919183433753266
0.0012347533782005597 -0.0023668053808977474 0.004954499831577154
0.0012598971574920908 -0.002568628666637456 0.005170815747792689
0.001299394341700803 -0.002789024875580095 0.005329591199365662
0.0013470200086920935 -0.00300124622802404 0.0054165742931117184
0.005426925470993862 0.005131745436690411 0.01048377683731417
0.00537546587526307 0.005215734241047632 0.01058773829577501
0.0036356946451385833 0.004258390808384032 0.007899325802269794
0.003008784149113493 0.004540349226337683 0.007357971834686158
0.002756623321613545 0.004680517645189825 0.007023911347454964
0.001964779661172848 0.0050291214141467465 0.006062286648397649
0.0016281028919205784 0.005070728610407611 0.006014722609536108
0.005062527148380034 0.003722391318982105 0.00983266168007717
0.0012007300176627214 0.003851757242792629 0.0049269062336580694
0.0011255396635361813 0.0035225680858188843 0.004949312187263121
0.005220026799499077 0.002571499124338307 0.008962801902211808
9.557214880806294E-4 0.0032567602647641785 0.005264919821517744
7.946193514405333E-4 0.0035267234231460267 0.005765849113077123
5.882554820735039E-4 0.0030773539034113237 0.006452191585184668
0.0020841924247041455 -0.0026311449674998265 0.0062374022930206515
0.0013428665494913778 -0.0031023096789755404 0.0056403404205929274