# vtk DataFile Version 3.0
vtk output
ASCII
DATASET POLYDATA
POINTS 1480 float
-53.06517173776634 -13.078216472643756 -26.294297586113505
-51.82949106041175 -13.443601547703718 -26.225554542415384
-50.66008990434303 -12.463025819654863 -27.03801827024768
-50.57693711020201 -11.815371309356047 -27.541901123854146
-52.00833069031804 -12.018355354971018 -26.969426802027453
-49.82110576805361 -10.905352520685451 -28.120033142629264
-50.52400927533821 -11.182342722799294 -27.83509553382347
-49.53464176594779 -10.627045032144805 -28.17310038083931
-51.55540524965282 -10.462572955071968 -27.441790439084738
-50.13955242437457 -10.254769772034601 -28.17971922270508
-49.921405752010486 -9.378971328780688 -28.281043684280128
-50.79019656269111 -9.262196259963138 -27.823119144342037
-50.15610092489425 -8.74633227881237 -28.1082526070279
-54.641305657209706 -15.230934215676418 -25.045536295418614
-55.008012374734115 -14.632879027127222 -25.51613278150773
-53.75034199475657 -14.089521163980107 -25.673038631364896
-55.14436999795927 -13.935052963458805 -25.42231807472683
-54.68293267026956 -12.550176972009254 -25.34502437979731
-53.31609436767591 -10.816284496910752 -26.211113529459272
-49.08834875097591 -9.799373204101524 -28.12311359910788
-52.64525620945844 -9.058916089272715 -26.32195071524748
-49.569943301018974 -8.732447993215592 -28.162595139455608
-48.37870277993872 -8.112752124360753 -27.97803612870167
-49.48137676455893 -6.836000002667475 -27.815936927444405
-49.01012067679562 -7.012914681816634 -27.931674938818585
-55.757604565386 -15.563017323358057 -24.415763488219113
-56.01007258960905 -15.93793229571148 -23.799056466353868
-55.47523024371756 -15.160386280171885 -25.160623351039835
-55.32384307161504 -14.975043861505567 -25.382618659590516
-56.043348148975994 -14.589068942012853 -24.680610981841763
-56.080158809202544 -13.510957098356677 -24.57202334972959
-50.40288888670221 -7.533492727072242 -27.37517418287755
-47.76932772994375 -6.590000651082249 -28.02387079144928
-44.03659972077271 -3.450128405989211 -28.075996128313665
-47.87224099594166 -2.817326970840531 -27.041721355890147
-44.092858296606416 -2.1348251252131494 -28.28392246630186
-44.96450681727155 -2.047239298086998 -28.056213645028446
-45.4878233264127 -0.8805806565055222 -27.86206605907094
-43.247769167437205 -0.8661931925328912 -28.3172994433194
-41.512057706936126 -0.01271965899343425 -28.584485534932575
-41.083359095931634 1.9270242535043722 -28.769004205750463
-40.02192694460141 4.075160341469823 -29.374354209838415
-38.67099032945918 3.765111387187371 -29.36183813378748
-37.64312359839156 5.02486964358443 -29.686337888669538
-35.733023517778406 5.633471389088483 -29.2269159440834
-38.95157281319497 5.21845232476025 -29.65629656967628
-36.652932732987495 5.582966984006135 -29.629021032937345
-37.47951474865216 6.075232267245439 -29.82143744985945
-55.204122212661225 -16.38279266293412 -23.224464780983663
-51.813423585319654 -15.319648532886221 -24.120908909439528
-55.615098243806536 -9.817449855899637 -23.883146170079996
-43.087214676786694 -9.96025468825395 -26.121294218937102
-39.8399886777785 -9.26125146432538 -25.954679432530433
-38.591087640409796 -8.132674260652875 -26.231384479001274
-38.12806558930478 -7.359303122348731 -26.41198251549888
-39.62391154714127 -6.615455301254038 -26.862461818737586
-46.83014561430041 -6.016608627255721 -28.042313455560492
-45.76685539119758 2.3090949200672775 -27.41388871549731
-35.993145035670125 6.689683826908843 -29.48274872509709
-37.16722331382366 6.918975761191875 -29.783609878362814
-34.91264971696875 7.553413307980975 -29.074239211225134
-36.71286889730825 7.9368947738676 -29.48341683985973
-35.59708254988652 7.939942774520458 -29.389913549884852
-58.76488661257166 -19.267878737396167 -19.985342100597652
-59.449976651418964 -18.457890801764805 -20.177181973738648
-57.38643397354274 -17.862588207425663 -20.976305891582438
-53.656779186849064 -18.626469148931974 -19.651169228982916
-56.94607801338976 -15.679266196228266 -23.004369630267476
-41.621758254044856 -11.55329721318327 -25.07244107440011
-40.714013761560686 -10.732744232764276 -25.391531973404653
-58.249915545297895 -12.776090293752922 -21.857693467237038
-47.05594852571598 -9.889162799504932 -27.299164588526377
-37.32794100049163 -8.014477034533812 -25.854515469754997
-37.189089415384665 -6.528010885186151 -26.35826291083383
-43.06025521690385 -5.804367201084493 -27.648038706601795
-49.00244487643283 -5.909511660026778 -27.625909792570475
-46.15461271091282 -5.022302868922052 -27.93314587720868
-47.53558715297889 -5.287322970928107 -27.881462728107486
-44.76977508242996 -5.360986651358234 -27.97973807461206
-36.522175688106515 4.403500463622764 -29.117884839521572
-34.38344876159217 7.756560931851449 -28.797907003003886
-34.8803786893761 9.56921996680475 -28.81233574819439
-41.36189247135456 5.399377552237884 -28.981007719839326
-59.450628397241545 -20.343301249848945 -18.95919945701675
-59.52822621164009 -19.434771065127684 -19.842102028888483
-58.74479815628635 -21.03233785646199 -17.86962315008295
-60.20784458233771 -19.455923542966417 -19.419043805973235
-57.74211098767212 -19.941129617583332 -18.973508410494325
-60.80921408294494 -18.191618356845925 -19.171765549559332
-59.577073235231005 -16.28944553158181 -20.44310462085867
-41.74938033498372 -12.85253014421184 -24.144793398198175
-40.27476786942228 -12.022976096008025 -24.435951787485653
-42.587059886459095 -12.018667674265469 -24.885146089607154
-49.27836176822209 -11.453948395474043 -27.46805078721677
-39.05165777480532 -10.68731069110642 -24.956022962886
-46.86894648070904 -12.751482197510722 -25.44428225342619
-38.31846648345219 -9.225414353510672 -25.626617524932637
-45.869458331235805 -7.111044449704778 -27.762535618543946
-37.41682186547088 -5.083000864513591 -26.863311606505476
-35.96202376952744 -5.1206958359933825 -26.41580459462457
-35.32867244842241 -3.9062009191297373 -26.57636392644398
-38.33509713488494 -3.475776240994125 -27.423806403232863
-42.81297496513887 -4.326703068866031 -28.00433289630546
-41.38687936296876 -3.6878638795573053 -27.95827393156059
-41.18382958944931 -2.3608521200029187 -28.27735407599092
-42.00398382843563 -2.297221160684893 -28.29240627616651
-34.021680459142 8.106464082931668 -28.615154808455742
-33.11739531841595 9.312809512531777 -28.171783819409306
-38.52739524181236 6.948305004551002 -29.570509295842953
-33.02907866892297 11.087607574673955 -28.19823480215816
-32.1678788388534 10.934659874253686 -27.747471039577214
-43.99401790335929 5.46326901563403 -28.23933367739271
-44.07449298366935 6.7384706865508734 -28.051383616301248
-39.810706702305346 7.562806115225242 -29.124137462533735
-42.84675519017549 6.876893719348867 -28.439290694688815
-60.282000512355715 -21.2162764306656 -17.964078795099166
-61.08493188020412 -19.647432995830503 -18.515638926779605
-60.490876526127835 -20.377136692313872 -18.684198104482615
-59.414448629187106 -21.43638105453924 -17.525118904576377
-60.512044560549015 -14.454149945983755 -19.602882440921984
-40.431504529870445 -13.259599995716693 -23.499526754089214
-46.285602263991 -14.36112287046085 -23.743016890811194
-44.11811912840639 -13.559658023544156 -23.904045061858092
-47.16911483091018 -14.55622795124959 -23.828687814026043
-49.79361521076722 -13.373861733767928 -25.93970267381679
-34.94076250295915 -4.71406927436603 -26.149550528089367
-54.06604183755835 -6.305048544268412 -24.021313718047484
-34.497530015361114 -3.1709759675280074 -26.382520363673645
-35.30481309369554 -2.861471491151703 -26.81401198263475
-36.23477035917406 -3.5511827049886624 -26.932611560673983
-50.836668734559964 -5.164747143237633 -26.179791053617485
-40.20552242429373 -1.0766307728382503 -28.268299814535876
-45.773059322008216 6.262895533615682 -27.19452790943845
-43.57632803008483 8.607368913457213 -27.414569340500893
-41.11515388857632 8.428016124146655 -28.384478880345714
-38.21198501861947 9.55642318159986 -28.713150784650868
-60.73661161224185 -21.64773216663526 -17.333839681974837
-60.1586987872045 -22.063573824148207 -16.721791901066617
-61.08827478905187 -20.903133238522937 -17.70942950965493
-61.73200534020141 -18.691555805165482 -17.70429859683648
-61.65979207000681 -17.681249893724598 -18.07561801741003
-42.648784317154174 -15.541937449004534 -21.797530677223993
-41.7904752062826 -15.694765132114656 -21.43299864309434
-43.77960925528269 -15.332657026530208 -22.171288767165706
-41.80630481252959 -14.45042517650403 -22.718433443549955
-58.02677458492728 -9.7978467388235 -21.477502225655698
-52.6266573514971 -3.151689231744496 -24.06865790878589
-37.85488694967999 1.8882179929101377 -28.613160602171483
-31.031574524828773 10.42884851323282 -26.689716163202235
-31.73287046499415 12.956394655586946 -27.341765347679974
-50.79905060682185 6.0213631452577525 -24.825281330778395
-33.50149465957113 12.721975944579775 -28.10790362753369
-47.7354535965731 9.460115439440342 -24.899458890071482
-35.6714881078737 13.780154134714655 -27.861046450400355
-61.64619675829655 -20.002581066952914 -17.43826708462563
-61.251098537096844 -16.962067227556393 -18.654788769295816
-61.24639838336259 -15.779349453310584 -18.62791720626955
-48.52614598349138 -14.529000687908066 -24.285236839940644
-60.972177817501716 -13.088045219188448 -18.819480294853282
-57.860515346159445 -7.2542074416755895 -20.696532703961623
-34.10999508630297 -2.3337972151619315 -26.38087954395468
-52.45361227292165 5.603875884263345 -24.578893849415344
-52.57027691487476 5.6632626765548935 -24.60276151845201
-48.72800865229965 9.561145786748881 -24.366046272618167
-46.255707583841094 8.894412109759445 -25.919593184953825
-44.04734528834142 10.711941807827657 -26.09147278480095
-34.01084618179455 16.069919939673323 -27.828275875005595
-33.53670487216406 16.808402259049473 -27.818445453719857
-37.199103356920496 15.908778053729048 -26.737857250135296
-60.94701674079527 -22.483049687194708 -16.28507718484855
-60.771106522619306 -22.394790676893436 -16.394177990435075
[...]
POINT_DATA 1480
FIELD PCA 16
mode_1 3 1480 float
0.008347093088552242 0.0014128232121946136 0.005221691660469422
0.00832197776067197 0.0014028239613411038 0.005288963775318394
0.008204496527718175 0.0012407718288749805 0.005348398337756036
0.008143423445563241 0.0011683324742267724 0.005372183122336294
0.008206055067081164 0.0012649408972120748 0.005277736388881034
0.007987075434899474 0.0010951642627979013 0.005448571351553735
0.008055947118461663 0.0011322997689106851 0.005394817277672843
0.007913456185493807 0.0010980458811652297 0.005474827289790214
0.007968529280523176 0.0011676179421603223 0.005316276447712282
0.00788064561136886 0.0011022420156628937 0.005453162269478765
0.0076847622287527515 0.0011154273188507524 0.005501885364338294
0.007704315735564061 0.0011328250727246942 0.0054089008320623595
0.007556088640672011 0.0011301383259842345 0.005491161977440784
0.008513990777872812 0.0017753004721584888 0.0052274201492087365
0.008521596933415738 0.0016877367534529864 0.00518542083730667
0.008433732158334057 0.0015730167426806908 0.005211419474468968
0.008469883384027772 0.0016480951385986864 0.005121109194710648
0.008318615823548823 0.0015223488788183809 0.005047756520994579
0.008075662423573913 0.0012934430955297022 0.005118454344489801
0.007691187532931163 0.0011371716446389242 0.005524021152832124
0.00775819811982001 0.0011845788754172156 0.005133203756775584
0.007501339835438757 0.0011422124293533388 0.00553522482015465
0.007220881820032725 0.0012112440643692961 0.005623565067900432
0.007007023168261968 0.001198655992950619 0.00559313581256484
0.007006234953710969 0.0012137526821734239 0.005634161878806822
0.008533343475701624 0.0019405210028330122 0.00518457623875129
0.008519437202986528 0.0020658753690117756 0.005183414616305346
0.008552966225507592 0.001795095045510749 0.005190255687949033
0.008550646657969294 0.0017449698868252808 0.005190655299169768
0.008513852756019492 0.0018235853865493981 0.005083667905623446
0.008440480506575542 0.001733270076303792 0.004979551406651788
0.007275712951804057 0.001150359106928075 0.0054250275454365855
0.00676936963387101 0.0012608956478435153 0.005747930393452738
0.005441900429317754 0.0013886823225377066 0.006108428722353114
0.005797517759475156 0.001049605637874776 0.005636583064719166
0.005028947488802309 0.001355946259423887 0.006217944357549841
0.005130763640794318 0.0012771182780730028 0.006105833494578086
0.004885159687193153 0.001109899862143358 0.006016915850830333
0.004535092883647849 0.0012946777557502564 0.006274407263912148
0.003997536168927496 0.0013637090940584486 0.006459085119870568
0.0033428153870264637 0.0011807070713083234 0.006547338435875284
0.002498083196991474 0.0010395138951927517 0.006815941892693452
0.0023403725264506616 0.0012004655420858603 0.0069017595946148395
0.0017780290150314828 0.0011314090418603417 0.007079585200401879
0.001343582352548682 0.0011426232511276518 0.0070299621934819196
0.001977885878511495 9.773360104208635E-4 0.006974921445439785
0.0014633323717451413 0.0011167562293786964 0.0071190091865917056
0.0014768532685242185 9.732930012674495E-4 0.007123419150488958
0.008466123135570889 0.0021303449178011564 0.005237317228340224
0.008352010687174328 0.001763471641357081 0.0052768847589626695
0.008018472648919021 0.0013815994984475817 0.004712167364739222
0.007192794464210424 0.0014499025665902579 0.005489544632601222
0.006836871059933216 0.0016104424122880274 0.005457157062847766
0.006417980551486277 0.0016944456758162826 0.005547830157831652
0.006116879556878212 0.0017406098206214434 0.00562499994906616
0.005984280600251148 0.0016367459506785118 0.0057726529954928345
0.0065169916902260705 0.001300722777698259 0.005839075376385913
0.004117914698861733 6.514559485379386E-4 0.005822840672636226
0.0011145176035739488 9.502186090228664E-4 0.007089553143478903
0.0012381258454542195 8.346496859190606E-4 0.007113965964315869
8.047710560659907E-4 8.284303017912056E-4 0.006995312488796323
0.0010058548069284633 6.321626045689154E-4 0.0070126292314997805
8.044974390164379E-4 7.252506336599074E-4 0.007057913804746432
0.008384582112459595 0.003189332628338196 0.005372356298446475
0.00840752536926636 0.0031514804529300076 0.005221487581717708
0.00841135388890017 0.002745826342731886 0.005246889009749312
0.008263039488465879 0.0026164463056438845 0.005356984242894214
0.008484562340093668 0.002198138633041235 0.005075894045963598
0.0075503110007991165 0.0015043141110426708 0.0052568405382158396
0.00729745074821271 0.00155919569810425 0.005311416469908039
0.00836795864857348 0.001982414803478502 0.004584266639334886
0.0074882067355685105 0.0012597728206428622 0.005544100003815271
0.006146366256813331 0.0018700152856762976 0.005506106163899453
0.005657323883231773 0.0018607559542974904 0.005682422680313857
0.006051235674980734 0.0014617275152307512 0.0059432178722370835
0.006721922991189184 0.0011859347512604996 0.005619159338420587
0.00616613496981491 0.0013034537094825862 0.005894139383406125
0.006397470637842686 0.0012430059159533689 0.005787310186231167
0.006102844409636159 0.0013850138057044429 0.005968864511414868
0.0018184543982567942 0.0012598910818010043 0.0069445544353391
7.130666489837616E-4 8.039968834608941E-4 0.006925107767059717
5.131939982576357E-4 3.728015008078037E-4 0.006849039022651464
0.002451864299770844 6.6323071623154E-4 0.006564143428930819
0.00832681891832028 0.0035242063952706246 0.005475149592224183
0.008387096727976901 0.003332038675023481 0.005364697284572879
0.008249538512939464 0.003585913104598122 0.005555135064418566
0.008369180061325381 0.0034754395805752223 0.005313941817843439
0.008304219778252185 0.00323466731703651 0.005456034612280306
0.008376510413643113 0.0033712149867715663 0.005040402572320654
0.008420516074464417 0.0027980613198342725 0.00488462114225634
0.007768746843902168 0.0015898387379947353 0.005138341876402569
0.00750060228522943 0.0016824288118320293 0.0051554993695001414
0.00766469458543216 0.0014830080754044141 0.005261067089018138
0.0079900825777762 0.0011768605275175766 0.00542832296142285
0.0070648955662600535 0.0017712204589754256 0.0052606972556174065
0.007943312969251541 0.001401781860611422 0.005348877902507519
0.006656345821092191 0.0017697695886000446 0.00540137145822188
0.006706868407082848 0.001330319478747143 0.005783199907831267
0.005210383763278712 0.0018061101177422882 0.0058727576676710835
0.004976413064366124 0.001975589617166603 0.005792362457386052
0.004460206983427797 0.002000568879694701 0.0058999578908771775
0.004744695485572763 0.0017064301984511835 0.0060930338418173245
0.005575463986084117 0.0014790230203283212 0.006111872534730429
0.0051976902825732006 0.0015398926234769627 0.006167534199970895
0.00472188036052545 0.0015351746054552862 0.006330374482139424
0.004809221862524515 0.001481221569771358 0.00630156091063233
6.172409796124422E-4 7.440055807931426E-4 0.006875067341769985
3.3895689735755687E-4 5.210865853296525E-4 0.006745331842279671
0.0015286488947018268 6.785142075973371E-4 0.0069386519293141505
5.194027168607644E-5 1.4845451296842282E-4 0.006709466431950669
-3.2276690523955428E-6 2.1283540159743194E-4 0.006612502627376616
0.002935475920778275 3.9804891691660527E-4 0.006122169245333378
0.002674939769141533 1.4994027418589105E-4 0.006013637860393419
0.00170062189540712 3.95249665389194E-4 0.00667294823995212
0.0024091526574879403 2.441628095733254E-4 0.006232028168554176
0.008263277444180261 0.0038751537581600214 0.005547788644942376
0.0083236897500037 0.0037122187214874264 0.0052470654226054745
0.008317612625254338 0.0037263404599731484 0.005424560511328732
0.008230332234876599 0.0037811776082725033 0.005589686944347975
0.008413143200692919 0.0026311034123623614 0.004482654548758103
0.007687090204355825 0.0017891952815497067 0.005043012378989189
0.008081358511539833 0.0015825830784278955 0.005251133907667963
0.00790286003726406 0.0015869681592376283 0.005211511153897566
0.008138409775145605 0.0015791205017879448 0.005267621023976251
0.00820458734093681 0.0013820231032600657 0.005333228382099283
0.004623993860873662 0.002094515538391667 0.005774832299207396
0.007399671315240896 9.84592900967241E-4 0.00467123067866767
0.004000741834586844 0.002071706951842709 0.005919333956428022
0.004080293248800177 0.0019544685799242046 0.006019542716668827
0.004488123921166081 0.0018818649316559022 0.0059938473047327
0.0067705670215660796 0.001041826012728467 0.005250462524895142
0.004158031821476108 0.0015109281769537712 0.006387357055914194
0.003182114928342311 7.800687850636123E-6 0.005622610658625288
0.0023210448446984483 -2.8513335231385585E-4 0.005789852824832026
0.0018546985608602533 3.1700777264882595E-5 0.006301498638721676
0.0011329093703724554 5.9468056262371424E-5 0.006587309553405954
0.008220947327190063 0.004076531919642381 0.0055754912133186875
0.008176841463317326 0.004078584352920685 0.005638706560300732
0.008256424602616852 0.003985576012742096 0.005435558571615953
0.008306984496334918 0.0036657000215372395 0.004957538107040528
0.008346482441882786 0.003443658102031317 0.004799601653664044
0.008056289987784961 0.0018908440753873513 0.004998476943519589
0.007971754388791942 0.002041919581177792 0.0049604538737195785
0.008067898942160511 0.001819770804652044 0.005075358372663069
0.007919236081162913 0.0018062022744342295 0.005019213566927878
0.008156893485638205 0.0015334161195416003 0.004283871448895824
0.00661766881526723 7.254047330152078E-4 0.0047182071860517195
0.002819803105737027 0.0014347633368332999 0.006667384104529211
1.2367054507976373E-4 2.8042726589661644E-4 0.006310428481373291
-2.0612242067580925E-4 -2.6480264247871933E-4 0.006414065488106653
0.004347713103573636 -5.106976080262337E-4 0.004507861958187283
-6.113810332810057E-6 -2.9433928625177143E-4 0.006573181671968166
0.0031251691127930684 -0.001061195949770215 0.004636646353831143
3.0270770785846356E-4 -7.810974385499039E-4 0.006300024432226585
0.008262704047974325 0.003924881117217681 0.005203518514430274
0.008376171993836543 0.003227160892545716 0.00474839264190196
0.008390726776482301 0.0030020017910211993 0.004548447588937156
0.00819876364785013 0.0015706184647502424 0.005285383077790515
0.00841136838897854 0.0024333876072718534 0.00416266551473842
0.007901963145598098 0.0011302015869577554 0.003987468455415097
0.003601745922334216 0.002077483944224155 0.005979979940381865
0.004735893533379774 -5.027208666795346E-4 0.0042842440029779525
0.0047471877761457665 -5.212663762007232E-4 0.004259997275004544
0.003359779736520206 -0.0012298114759835028 0.004390330564469425
0.0028749501535192275 -7.125663598385557E-4 0.005098414806300396
0.0021752979543437183 -9.448987777703096E-4 0.005270761387137294
-1.6442103379606845E-4 -0.0011840710397763032 0.006283614906059789
-2.9338142922549705E-4 -0.0013228074023861273 0.006271120483958343
4.752626302856714E-4 -0.0015495720659162205 0.005747441225116672
0.00814632606307133 0.004335101331027259 0.005672923837551269
0.008154392364627184 0.004276115732686215 0.0056672715957296
0.008166868484576473 0.004272304207918578 0.005575143652041483
0.00819971333378186 0.004134004472909613 0.00531912927208907
0.008242135107985124 0.0015792838944323412 0.003772248391345296
0.006447484174215833 0.002079674453884229 0.005293993581800076
0.004346246957958155 0.0021785176400263267 0.0057444088914634026
0.0021049304751570115 0.0014610157423241604 0.00668901611409858
0.004785259061100605 -6.670635121538857E-4 0.00412273145340493
0.004430277609015392 -6.639933464982247E-4 0.0043042776299526886
0.004120699320372305 -0.0011541710798492083 0.004096928809790206
0.0028952274719815946 -0.0013180223833725838 0.004529834940955351
0.0013750730156491958 -0.0011498533780855919 0.005535689923899356
-3.473558385323319E-4 -0.0014668881625128616 0.00623476225525421
-9.184584913663508E-5 -0.001614379578630827 0.0060409455955255115
-3.310200328705101E-4 -0.0016711209967853154 0.006156736438041235
0.008131126292666593 0.004389633158919736 0.005635093221281112
0.008141272322218741 0.004359410287914344 0.005666865556491607
0.008197933573228275 0.00395892235514649 0.00496257480310733
0.008045656781010312 0.002097329554552507 0.005027115542236876
0.008388522737581245 0.002820317654575641 0.004162822338307493
0.008387013142732023 0.0020834450451569266 0.0037451804206673532
0.005179165082030417 0.0022304198410041396 0.005538906660261312
0.0017182373899671654 0.0014079336487962883 0.00671088261857719
0.004913733492783298 -9.117136030702976E-4 0.0038730284997871888
0.004557384211592399 -6.949815478309012E-4 0.004216073575792161
0.004341036933065122 -7.580902058352904E-4 0.004279402463251125
-3.4750776459868676E-4 -0.001116988056924014 0.006233810865490244
-5.413125570949682E-4 -0.0018830637301917707 0.005913676929149632
-4.132895037367985E-4 -0.0017116075378371867 0.006113023462973041
-2.854260748712049E-4 -0.0019554415709609847 0.005961865973590301
-3.5774320339793255E-4 -0.0022714483783205924 0.005780479971457576
0.008103631897763511 0.004420240217315078 0.005567988045688122
0.00811789918652175 0.0042898362237283084 0.005660222563511969
0.008124899729358774 0.004398409340309735 0.005550638186276483
0.008131783598168034 0.00408034000230902 0.0056638483958337095
0.007841569141851936 0.002446868876003524 0.004939503866736848
0.007699925579352811 0.0019428230489585872 0.0049833199133393746
0.007221209772352141 0.0021634812480542083 0.005042346282492294
0.00840173571280437 0.002501840703095477 0.0037796203433350796
0.006028215128224395 0.002823154867979253 0.005110605048020039
0.0034907023666246586 0.002275800676346322 0.005758997366165403
0.005099764540246719 -6.814891522713751E-4 0.003960339520991892
0.00504629822869511 -8.2153743352751E-4 0.0038756905563298995
0.004730884052410525 -0.0010062990021501934 0.003900138108601689
-6.042853302373393E-4 -0.0014856868665429643 0.00590552380123001
-7.003150606593738E-4 -0.0019922385609497926 0.0055995448742919614
7.611599494032411E-4 -0.002113310478213328 0.005160822323023227
-6.008355276692387E-4 -0.0022884695570871134 0.005674891389388445
-4.739737680901242E-4 -0.0024244709793553557 0.0056910327911661885
2.9526188903874454E-4 -0.0021890215857095587 0.0054198907670836224
-3.3770236148578683E-4 -0.0026692778082690553 0.005550972934711122
0.008038640316991853 0.004344659292216874 0.005634511381613527
0.008045124267043308 0.004459097266237027 0.005529356558312814
0.008098132267615299 0.004327739224468251 0.0053054572346173355
0.007886223840722928 0.0026736840758683983 0.005076366252644345
0.007643986702595857 0.0025631831461798617 0.004875109308323728
0.006885649865953006 0.002879952234437287 0.004928558513602071
0.007726009117547874 0.002187379301296557 0.004932913302583002
0.006415492709963833 0.0033755551611322878 0.004930206708217244
0.0038796810812720857 0.003259869212614057 0.005144304882813256
0.004513984393246794 0.0029355910811248846 0.005264421557857394
0.008104131979306756 0.001024139141106732 0.0030922740320734046
0.0029157559540770304 0.0028160189099260668 0.005274745253248089
0.002635081122882922 0.002413222075957944 0.0056191185196587164
0.005728208363919683 2.4310510519999186E-4 0.004581066831402197
0.0033187421435807505 0.0018154470394626807 0.006239223682023669
0.002032057581589834 0.001527941116309625 0.0065903846978959384
0.005285969815457021 -9.87546324347517E-4 0.00364498285700438
0.005070602295450883 -0.001171657759801602 0.0036182619695231248
0.004872395338314194 -0.0012065633068419916 0.0036892160537772066
0.004484627671719347 -9.746295114805683E-4 0.004044582515772788
0.003523613445507561 -0.0018431346553333936 0.003900422926672128
0.0016166081686457736 -0.001829068151267407 0.004828769800816608
-3.796299143392031E-4 -0.002790079549340641 0.005459223332488301
-2.1997980289799448E-4 -0.0027285064610560288 0.005458096788642248
0.007975178173097916 0.004531718573621907 0.005554340533356006
0.007740265841640481 0.002860842223759765 0.00495412000172173
0.008145653310611279 0.0019768146374302274 0.00521027062190336
0.008057106616972596 0.002449054355058565 0.005218777868393251
0.007539201718562072 0.0029061478431158406 0.004881928971382261
0.0071394631127114395 0.0031162736307906447 0.00486281325319582
0.007398683276045066 0.0025979223250385763 0.0048899794477768955
0.005863699938263563 0.00354145909073917 0.004979562796122672
0.0053830069267257665 0.003861050547786691 0.004960555007710766
0.004976951399980265 0.004065091696072909 0.004934460723227134
0.004471078915811021 0.003958185284568687 0.004930989872901198
0.005316586460737093 0.003375287462610257 0.0050536010141200545
0.004602625428451823 0.0036161905491338808 0.005027424319329848
0.0038229917172170405 0.0035036170120100567 0.005032384349911069
0.0032128340658463977 0.0031394450501889223 0.005187129464094636
0.003438197033207654 0.003255000732615722 0.005142103082391335
0.008362113814096808 0.0015919313442911863 0.0028704572813552072
0.007322451435849488 1.7891075928050577E-4 0.003286293730236673
0.0021978115470309176 0.0023661061610430823 0.005548959353860997
0.0011741466407655444 0.0011295982105605743 0.006721082937263253
0.0061071869933405545 -8.540828696426908E-4 0.0032991235855030334
0.005631010069407483 -0.0010599572198989524 0.0034235051713640123
-7.474142702306939E-4 -0.002487496979980401 0.005281051132465041
0.0013262318346560912 -0.0026002176301395258 0.004395334399198132
-6.400495335805294E-4 -0.002527238812469801 0.00544549911614147
-3.627770718725488E-5 -0.0025566181067791217 0.005411878115749554
-5.042221339723125E-4 -0.0026681412233877447 0.005491539417402473
0.007953981685065278 0.004421924366903511 0.005635789345164686
0.007929221663491099 0.004522363509465639 0.005235052783979141
0.008078933577829236 0.003809925303472849 0.005593973701122832
0.008005399063326006 0.004036100864911205 0.004479193449804469
0.007781685171034591 0.0029135331542843685 0.004992615587910503
0.007692088134819336 0.003036972375511122 0.004963598801343253
0.006668353568752641 0.0035219062135783785 0.00487707312697613
0.0074754671621210045 0.0027844236024140386 0.004853276328915188
0.0068201469398615515 0.003231932874399141 0.004877688769319648
0.008282915052022924 0.0033875846577298857 0.004401590883258818
0.005356009373097835 0.0042202088090191785 0.004917397600135781
0.004209029560373409 0.003742601491607667 0.004966954084452428
0.003445409241578255 0.0033541485960151287 0.0050770260157686565
0.0032532967614517716 0.0032135344662853767 0.005137229799977446
0.002391068883787941 0.001928324038800306 0.006106352739884556
0.001984759338325177 0.0019122472130246322 0.006072745116679332
0.0020728873951960623 0.0016516495311815513 0.006401743926056605
0.0016842184154528177 0.0016598954018707858 0.006197102509955193
0.006046738610840324 -0.0015058149312661415 0.0029023658552669055
0.005478708075637928 -0.0014578940131922623 0.0032212298423086893
-7.346884196398912E-4 -0.0027789851293808995 0.00501847730375073
-6.38083096096271E-4 -0.002838384906830041 0.005161336481989969
-5.013961312670223E-4 -0.002931944568877322 0.005235746639898239
-3.5115877904668254E-4 -0.0030550098910341506 0.005219061595739885
0.007848490927358504 0.004594006632371032 0.005593130777974957
0.007897314464596471 0.00461726239354377 0.005521469956255322
0.007637127320490498 0.0031286561961594763 0.004996874685819522
0.007189977154086309 0.0033601720470977127 0.004882868664721928
0.006798257004982547 0.003622236464897823 0.004880007245871024
0.005390445146568311 0.004359143066225964 0.004909151524434593
0.005091234682620056 0.004267561892251702 0.004911201699436492
0.008385056677795535 0.0022354019901098593 0.0032566395876083925
0.002435285194510238 0.002795838903470357 0.00496225816973466
0.001978783758841997 0.0024551100427605316 0.005053132985501707
0.008325189700858316 0.0010633025720021767 0.002536831190152904
0.0017208170056782618 0.0021861882917806803 0.005230583436816187
0.0020530868852236214 0.0023864980445352426 0.00541063093660314
0.0020411577474368225 0.0019941982202818895 0.00585242926589069
0.0017174317839898049 -0.0023192221892863038 0.004333503672020431