# vtk DataFile Version 3.0
vtk output
ASCII
DATASET POLYDATA
POINTS 1480 float
-54.49841223623142 -12.731479461904344 -23.99060320018924
-53.27738554380201 -12.960502291727257 -23.94035142351521
-52.21543971560288 -11.891475595381042 -24.667201517433398
-52.179901343853324 -11.252902675314552 -25.123633959906904
-53.51678327587273 -11.612394796846061 -24.619378431928013
-51.462002636846336 -10.327143763324711 -25.68792216740296
-52.13345177379703 -10.65494203896069 -25.417849339686935
-51.16144902457385 -10.062057873409474 -25.765166540400486
-53.054298173953455 -10.139061430254646 -25.131102825325147
-51.73582119017463 -9.77600496019237 -25.79813787898488
-51.457714412443764 -8.991535596663471 -25.981963195978242
-52.25529710526021 -8.994314972779993 -25.582767049390622
-51.612983752235 -8.478106305269533 -25.897723862278365
-55.89303430261354 -15.001454990672983 -22.892561662293318
-56.322422476358696 -14.426018442439155 -23.27648925976571
-55.100115962594835 -13.785430609238043 -23.437388702161634
-56.43723407923456 -13.800828790728637 -23.20516086437278
-55.94963144333657 -12.499139154321977 -23.185821555003212
-54.656606913952515 -10.722094096977171 -24.027083365440618
-50.630685814198046 -9.333526824874532 -25.81728658904159
-53.91066503874563 -9.100948979911195 -24.257923459448993
-51.02624570835302 -8.434049585937034 -25.959339540390253
-49.72240387623287 -7.884859934914744 -25.894429775281353
-50.68597267012358 -6.852229833424737 -25.889020840803372
-50.23927323617215 -6.975829115838069 -25.981092057120375
-56.89720890924968 -15.499661329138155 -22.357298339405965
-57.051774240335604 -15.950131759361668 -21.84886231771437
-56.732204243888845 -15.005676853833185 -22.971785185698764
-56.616108596429996 -14.79093599010534 -23.156941335249446
-57.222846103279586 -14.579504912515835 -22.56360765560884
-57.2411979687566 -13.587847898204375 -22.479171157539888
-51.65333731173527 -7.533347987441702 -25.380111358679564
-48.9321142772775 -6.570943105450932 -26.131822207261287
-44.64448584330394 -3.894319889154573 -26.527762037727097
-48.49595873171168 -3.4054135944898327 -25.58024353745436
-44.51765289422682 -2.746568793401536 -26.88828422854869
-45.40656471135666 -2.673746951573205 -26.67113317943286
-45.81341089814343 -1.6193620892052154 -26.57233532177986
-43.46910263458912 -1.6352267426564393 -27.016338996517682
-41.52281971879789 -0.9225021365623838 -27.344417322124784
-40.83465373202718 0.8475232647955133 -27.69603883918355
-39.45692256527957 2.8332631141763325 -28.49786986716989
-38.00528262547173 2.419024463540666 -28.464524506416176
-36.748470438680165 3.5399375274080125 -28.91409891907334
-34.657480462604894 3.9442078168338117 -28.507649598179192
-38.18331643327125 3.8560051992751454 -28.885501255996967
-35.627103653375876 3.9851329151607766 -28.910968151375783
-36.499244001403234 4.5609568649385075 -29.13790781430756
-56.167474357339934 -16.351119154388872 -21.397755322932063
-52.971171202741395 -14.882068694867918 -22.158037122003016
-56.61808943850445 -10.256005518253959 -22.033184147835957
-44.37567574206483 -9.360728805576922 -23.959329189226402
-41.0900159745016 -8.67864713730244 -23.64169442267683
-39.71252014409367 -7.786752098516811 -23.91594757748203
-39.12940797781957 -7.203130100273342 -24.141218719667947
-40.52685543619565 -6.605713697397139 -24.785589600400968
-47.90034867457538 -6.063352896957053 -26.227187098846134
-45.786079772624994 1.3094966209891306 -26.35956498136678
-34.87068314915192 5.019608508990091 -28.856177018998256
-36.12804490938362 5.371409848478116 -29.16741746398624
-33.700136335017525 5.772676307535418 -28.524923066160895
-35.6369839614575 6.343849928335458 -28.949392138708244
-34.40846317863983 6.2296586133872065 -28.873764249144983
-59.12778953055289 -19.935965755547144 -18.7649834086198
-59.84291622306289 -19.188081797985667 -18.866738408945658
-57.95291712630157 -18.27618562664628 -19.549037131857258
-54.08205193551931 -18.673548485556626 -18.523129177675802
-57.85664376626712 -15.896607894723564 -21.172889056713043
-43.04455097501541 -10.557537383000431 -22.778630008963727
-42.09777055090696 -9.850522964274658 -23.05474433605106
-59.020773167324954 -13.413306472091705 -20.155803356311196
-48.47122137000868 -9.400760817106004 -25.110054785420967
-38.33910365344795 -7.709252619164832 -23.496233162774832
-37.988369586798925 -6.597296882510836 -24.140952332146377
-43.9512153075981 -5.890495314155058 -25.821090268538036
-50.07124336675237 -6.060434239391078 -25.8187092977091
-47.060295177187776 -5.2256273072212736 -26.2304986744885
-48.51824020372107 -5.46753059766131 -26.14763739882561
-45.676064242852235 -5.505788434556293 -26.230489450868646
-35.6262822325173 2.833727354788434 -28.275314916127797
-33.143102140076394 5.921350943584738 -28.26781844468255
-33.673777375465356 7.809869122748458 -28.434657314648227
-40.855727200801184 4.203665742220273 -28.185771006834067
-59.625063039207 -21.20065392923191 -17.954305819155078
-59.84720219651562 -20.206547553000366 -18.63675357688867
-58.769528884282856 -21.91571823883298 -17.10159420330007
-60.44910738381109 -20.348727695706955 -18.26579728012656
-57.96977261929028 -20.58420247536595 -17.976746107774293
-61.04216252441221 -19.179758949630866 -17.969659406952616
-60.06292667100606 -17.04488200080797 -18.9944316757741
-43.14073811294863 -11.648687949937221 -21.89998128425563
-41.66276229536437 -10.851739966420315 -22.08666251082128
-43.981049427044965 -11.031743125499258 -22.667201200056542
-50.8521725951579 -10.849597282130391 -25.107184209465142
-40.34990427006141 -9.754065167118323 -22.558687678644404
-48.241631223530085 -11.989484066576672 -23.305139119199225
-39.521163941631954 -8.619847131146356 -23.2273098520405
-47.018580699958285 -6.989065581736805 -25.82814990187818
-38.000760623908846 -5.474794453197913 -24.839212387529553
-36.455272433531164 -5.57360057941634 -24.3066241926409
-35.58440327014733 -4.672238620674313 -24.585808817065068
-38.695392232414854 -4.103775070213115 -25.660249386196504
-43.504522238486125 -4.6563067660996 -26.338890609309367
-41.92416798800873 -4.149049453754094 -26.313574845129523
-41.51075286893544 -3.0268963323597653 -26.793206318889617
-42.36050514521336 -2.9440174392010254 -26.833237865977807
-32.75717080930708 6.236445045524135 -28.123753947529277
-31.78980367606343 7.367645599674045 -27.814920250925177
-37.65704461466515 5.531688908916089 -28.933470196505507
-31.6813281042286 9.16529711590849 -28.002980332852566
-30.770432022023503 8.917682462368777 -27.566818990032708
-43.699073149164185 4.373141408952215 -27.412244378207394
-43.747682472445966 5.630768708820191 -27.30515427092822
-39.09373348261453 6.249658739059419 -28.50566332109328
-42.425601961782554 5.7359123870510205 -27.72022464945807
-60.2702546810916 -22.28229110971914 -17.156758923894845
-61.17522955199012 -20.735453667296696 -17.493570628211753
-60.596290233275425 -21.38481302068921 -17.699020365062033
-59.36169673469662 -22.440990128444838 -16.824693133623946
-60.924963010677565 -15.44823402583715 -18.197875827486307
-41.76564108551968 -11.86487295848549 -21.220054461141906
-47.49923200558188 -13.444145114275372 -21.793034671657608
-45.38943009888274 -12.515337807431191 -21.848250125526654
-48.37618828411483 -13.69895899240498 -21.88983247577021
-51.22712191080833 -12.74316477955264 -23.715709268082644
-35.284693918490625 -5.3062356590690545 -24.035851844752475
-54.93980993906098 -6.985250493577638 -22.38149675527598
-34.562587432409174 -4.0942474074530635 -24.442810483852302
-35.38499057552928 -3.8108285242455726 -24.96683941523792
-36.49420361520842 -4.310325895070537 -25.04529845465544
-51.73739773817567 -5.621070793897634 -24.51837688823352
-40.29126357065577 -1.9407132830067775 -26.877187579972038
-45.574664080918474 5.137823977986605 -26.399193552708333
-43.21370372701873 7.423139396043978 -26.80379065549447
-40.54472024964584 7.17515523431808 -27.801403683549946
-37.35187532050867 8.101999383178972 -28.26402465969933
-60.61186988678902 -22.83725591212507 -16.64514986574182
-59.954526619507284 -23.247212630060528 -16.17545737440765
-61.02901564459638 -22.086592571139608 -16.898076405706945
-61.740897558606136 -19.943693677551643 -16.72873214166324
-61.75521049266578 -18.88689821452757 -16.985831466192362
-43.728778167701854 -14.02831320406902 -19.899629657393117
-42.80756061052388 -14.038655583437896 -19.538877977087378
-44.86978334182535 -14.019254083501778 -20.29734157361255
-43.03398710986464 -12.99214791866362 -20.628403698524217
-58.754557044656174 -10.676186585049756 -19.884863359128108
-53.24385585909186 -4.100728641717405 -22.688739487860822
-37.37171000411252 0.5912569692276641 -27.495403733719964
-29.66230946221922 8.3288683931901 -26.48229483508811
-30.370984981453294 10.96746193297819 -27.351387222680092
-50.80217493839366 4.728920569034122 -23.96309577905942
-32.26257358141549 10.918411088475652 -28.012835556571048
-47.64015475756515 8.185166004791888 -24.28367204939043
-34.71070675268253 12.210595875576386 -27.75849464217486
-61.57106368169303 -21.272932966240084 -16.589627334747338
-61.45322555975177 -18.067804926329593 -17.45449062919299
-61.48640873093202 -16.912289054309532 -17.384732691841947
-49.768455416910435 -13.78414542633977 -22.28909732521854
-61.330351954293185 -14.273022298956246 -17.48062619944965
-58.481991344439436 -8.426569099728072 -19.27875240081304
-34.005582088297245 -3.4051162399060253 -24.532449238947027
-52.46927902960639 4.272258235928909 -23.671587635843164
-52.58620596175503 4.3354701995842575 -23.689765961120404
-48.68216816115667 8.248263293598864 -23.72770714416861
-46.0706613769286 7.6696590772672195 -25.29080233287235
-43.751648791463914 9.454217477165248 -25.614537953878216
-32.98889470179784 14.486500633239757 -27.911408623975248
-32.505154404001644 15.228117365658353 -27.956815616483702
-36.50731024474062 14.470179127262078 -26.735214120461308
-60.64617783703776 -23.81479467378715 -15.818524308966959
-60.49366669935406 -23.69294688137579 -15.908505333347762
[...]
POINT_DATA 1480
FIELD PCA 16
mode_1 3 1480 float
0.002005589776427444 0.003440364054326244 0.005081765508718052
0.00195362417431995 0.0034814838781851826 0.00525340920102418
0.0020138359177799227 0.003223035661516972 0.005221776559213809
0.002062307240782524 0.003069680825693205 0.005136182791727506
0.002095976890856383 0.003153753988881858 0.005015851215253865
0.0021454164944816876 0.0028373774503186377 0.005054097475558147
0.002132494360008877 0.0029181888917640827 0.005033741416951773
0.0021795214930247554 0.002771565884621804 0.005021772926503138
0.0022744070258412076 0.002767629439050351 0.0047776535953028216
0.002236526373157639 0.002694793858612237 0.004896161171996825
0.002348409627304504 0.002494169109369675 0.004733954474677616
0.0023947588711704135 0.002473417088936395 0.00461482166891531
0.002434681159117804 0.00235033255475853 0.004571523784234386
0.001790048890736054 0.00400640957330881 0.005247281553765051
0.0018340824375549238 0.003893765251485484 0.005139885998557871
0.0019119298503939442 0.0037047719748987793 0.005166178974822146
0.0019707054790203855 0.003727882185501318 0.004996391057656322
0.0021996044745310225 0.0033541714756500558 0.004778829696389124
0.0023467438558743333 0.0028846137978818663 0.004624782749371524
0.0022937578655348634 0.002589029811313442 0.004878728186300376
0.002530292067206063 0.002427819923629573 0.004341795664881565
0.002426249718212567 0.002348427550432711 0.0046155612380676045
0.002492152310306378 0.0022208397041021018 0.004567121620932786
0.002619539016500614 0.0019251278399363973 0.004197532600373402
0.002598863301454224 0.0019711980569492972 0.004275080631443448
0.0018090608062608124 0.004126533709141935 0.005157785805159868
0.0018231795574477723 0.004211955442903931 0.005156722680054883
0.0017827644615449445 0.004035997637123871 0.00516568370081978
0.0017878995544030889 0.003988934322324881 0.005162606438551752
0.0019483021281854532 0.003910986490689186 0.00498053874979101
0.002153334202518717 0.003642284021949988 0.004780526026324134
0.002583672301018958 0.0020637634877108016 0.004260359121340857
0.0026153297520868936 0.001889596833700337 0.004293373628664868
0.00278213272067869 0.0012295404470942443 0.0041065963603687085
0.0026872397874001166 9.447923077056376E-4 0.003604123125349542
0.0027643461359138618 9.364005171341232E-4 0.0038784412668153244
0.0027327743173022937 8.83029831976382E-4 0.003772510036817718
0.0026387410988529315 5.65467740122985E-4 0.0035649373967878294
0.0027478855247281544 6.39323437041357E-4 0.003840941012573091
0.002815884992023795 4.857226354842535E-4 0.003980784596654545
0.0027152521859120683 2.1585124065959692E-5 0.003860014214385892
0.002626309935364811 -4.493598338650522E-4 0.0038233682112766595
0.002809901082117552 -3.3934714629781283E-4 0.004064918505464447
0.0028252896248486367 -6.12535747651258E-4 0.004134273816388456
0.0029949271208801293 -7.511480543168133E-4 0.00437027836827974
0.002644233945445531 -6.961432792371816E-4 0.003910307685173938
0.002898194609496416 -7.359533483169066E-4 0.004253208026426238
0.002746700384636845 -8.709683203791303E-4 0.004097176651418386
0.0018324495443980198 0.004242735075029063 0.0052752096142361345
0.0019208216409132767 0.003878674370193193 0.0054645112298137835
0.002695239851661732 0.002630813635626738 0.004101731332280615
0.0024753493355254693 0.0026481327781998944 0.0053936593051258285
0.0026746377781754374 0.0025138201217079813 0.005643653592218418
0.002847278833020633 0.0022733570275785546 0.0056126240891532595
0.002944515961715432 0.0021097503257112072 0.005546986448129013
0.0028943106017407134 0.0019465313470587498 0.005235289875735882
0.0026490485939280055 0.0017722308128402624 0.004257386013136228
0.002376289547297109 -2.9529145717888073E-4 0.003132766959017167
0.0028740143882856873 -0.0010158547051248026 0.004282822661151851
0.0027057045390804575 -0.0010845740469490755 0.004096702091296743
0.0029349747605602787 -0.001237448434547199 0.004380184445492536
0.002680418286319698 -0.0013535378205806205 0.004087341461194987
0.00282504560569668 -0.001335415355943573 0.00427108262562824
0.0016434371780162538 0.0050336320568097935 0.005174469874700247
0.0017684492789346536 0.0049303625123852226 0.00497490132157073
0.0018314233903375882 0.0046414207570143196 0.005157338838992177
0.001997881232346276 0.0044629951577811015 0.0056083736630212115
0.001967977400809189 0.004175770585621315 0.004967161994160132
0.00238232227456786 0.0030029651144363742 0.005802671362568947
0.0024924884283419406 0.0028322410931127147 0.005775083710551455
0.0026032975320232346 0.0034531264680453745 0.004277709985974656
0.0023425462294837975 0.0026170994440188476 0.00502811539640867
0.002910294242667198 0.00226888591617744 0.0057484843262259645
0.003054221574753438 0.0019446488042545655 0.005539680846601607
0.0027515351461640937 0.00176137629073135 0.004638105958425111
0.0026548053783999746 0.0017044730490979026 0.0040537100400391156
0.0026906544464475107 0.0015475821484355627 0.004143284130956748
0.0026677567246977912 0.001585563227619419 0.00405867400187176
0.0027132227132627184 0.0016514195632201724 0.004350155427347472
0.0029995588238988053 -4.651429595611172E-4 0.004340903507680379
0.002981675564532887 -0.0012923706919189019 0.004428738600005235
0.0027913499196024713 -0.0017650117245620364 0.004216581451822189
0.002358119863098013 -8.475201258780966E-4 0.003492105258344616
0.0015486982907017672 0.005261275046704911 0.005217895519074686
0.0016017473048241903 0.005146519592283453 0.005102271003634227
0.0016235243338093121 0.005211924477207986 0.005372793434949743
0.001642605705167615 0.005188276436566501 0.005004990874970576
0.0017078581972750438 0.004986978656660042 0.005357380259979039
0.0019504045125194988 0.004908511613226607 0.004730287130486667
0.0021841714020937692 0.004404959076243827 0.00463669297379443
0.0022910948434348506 0.0032925246417597866 0.005979423366825633
0.0023967199118529897 0.003134796839146911 0.006007224043752986
0.002325596052061744 0.0030935166589262674 0.005771896688270697
0.0021217775121132407 0.00296568713929769 0.005166592586550568
0.0025716850518377105 0.002851853488502777 0.005942480868690418
0.002151442358051688 0.0032367898920754425 0.00551595531996345
0.002751804374231478 0.002523963944328989 0.00581392372209612
0.002593872635837989 0.002021478271037739 0.004578448270691921
0.0031459077551905202 0.001630415283317061 0.005292683618549147
0.0032335090152337694 0.0016521152663884545 0.005496709517085166
0.003352088503527751 0.0013897578630762963 0.005415732869531186
0.0031065661585421753 0.001280678266922142 0.004926346329688206
0.0028278238113451765 0.001448397716297266 0.004392344615311132
0.00290874154003114 0.0013187286381142222 0.004494184702332312
0.002932953881454224 0.0010373342802481307 0.004306426409607806
0.0028809831375392987 0.001008532668850007 0.004186521060710762
0.0029967524145116343 -0.0013811775016895384 0.004432090278922303
0.003007191545930108 -0.0016808141070565278 0.004386466310760664
0.002534218134939363 -0.0011356226781996713 0.0038551651401496547
0.0029033835678273093 -0.0021315720619947084 0.004283484247286672
0.0030022284004336194 -0.0020825534124731576 0.004316461362292648
0.0020774617458460317 -9.863041001050624E-4 0.0030254335151897495
0.0019145385461900642 -0.0013233116043231121 0.002854135401765177
0.0023186722412839303 -0.001348066525020538 0.0035662571394175983
0.0020189996008610775 -0.00129363453021829 0.0030627593699140776
0.001478220830957998 0.005461932741370783 0.005210952244769701
0.001714175139314118 0.00523773810274559 0.004891291976788144
0.0015398816116657615 0.005368180553976819 0.005081964167337276
0.001557203139215242 0.005348786517784424 0.005340289420972499
0.0026678074938452628 0.003944767320502882 0.004204307450899789
0.0023056120969126136 0.0034193450509653446 0.006158228286407458
0.002130352971609169 0.003560365494860795 0.005775272787659824
0.002221333479549139 0.0034130153803675948 0.005847533852310522
0.00209088269868607 0.003603677734896985 0.005732523986438815
0.0019982625723411027 0.0034104392711340843 0.005400413176495572
0.0032955399071831603 0.0015727390302758622 0.005579944191446074
0.0028884110263622427 0.0016494545258478384 0.00358087231484656
0.0033566063264544427 0.0012335809401874099 0.005429681607816925
0.003364074680244651 0.0011608477869908462 0.005281629891586562
0.0032868396220923734 0.0013064100666310583 0.005241742754399483
0.0027529521254008632 0.001454080407271965 0.0037195094177388185
0.0029526138980119636 7.442339793419704E-4 0.004311127731889303
0.0019003093244652433 -0.0013303726454023841 0.002614123014639824
0.0018437796306050192 -0.0018240400318684526 0.00272522302542109
0.0021053423459871604 -0.0016427037080531874 0.00321874551725724
0.0023776180311665934 -0.0018422304623026428 0.0036573241580083273
0.0014613789605404093 0.005551459757748615 0.005196892199070007
0.001509129966421249 0.0055020570004048665 0.005314229486355839
0.001554694692861627 0.0054549441587862756 0.005052273883967492
0.002036472846974947 0.004952938024905863 0.004636788126855057
0.0022090456309932878 0.004732842166648394 0.004505844111520798
0.0021894605557912982 0.003873822568564646 0.006223333140980252
0.0022147663842265377 0.003936681126802586 0.006302675895613117
0.00218172935009227 0.0038003072761130735 0.006101346431240532
0.0022244347154590136 0.0036580916901407068 0.006174087818792968
0.0030074357727609175 0.002615294522470301 0.003757526852222267
0.002886487680559008 8.157990529103307E-4 0.003124047688710216
0.0030120303581384496 9.420843269717157E-5 0.004361299654981212
0.003113397242699981 -0.0019434628403376371 0.004263955362810829
0.0029284373237402333 -0.0025876212113208506 0.004131939084791943
0.0017748540382447192 -0.001668223002563291 0.0017971734706850196
0.002745216868887948 -0.0025656605293114 0.004113380634792356
0.001550130751517996 -0.002384827728131466 0.001829400661218871
0.0024296174879328844 -0.0029044676142105617 0.0037314523222306208
0.0017861262541187602 0.005251671741151739 0.004837441298950171
0.0022897206228171285 0.004570058638520441 0.004469251268529562
0.0025435205336128384 0.004257366487207558 0.004286644711494948
0.002032820870543972 0.003627073786270943 0.005630590078355091
0.0030158892298074304 0.003542396354343994 0.003897872890549309
0.003239922611854235 0.0018345203861296186 0.0032758852023182924
0.003343514008489407 0.0010515436574002686 0.005367818387933241
0.001718113283338662 -0.001680090829455092 0.001560334720460516
0.0016866007356299293 -0.0017091308138543948 0.001526404054764884
0.001526662530211984 -0.00250831317217561 0.0016519871879799707
0.0016700024280216462 -0.0021046069561899733 0.002184202133987361
0.0016991654937255234 -0.0024588241173535406 0.0023672326503353606
0.002485349299992183 -0.003457925640736669 0.0038851781140373334
0.002501326693231034 -0.003639849174245412 0.003930016062875487
0.0021718793303949664 -0.003516379180089927 0.0032164505862201523
0.0014352097963228664 0.005657573130410192 0.0052634277990564905
0.0014484591337310684 0.005624827205334051 0.005276340204662437
0.00149812401347529 0.005585522978662794 0.005171803303343668
0.0017129654627372488 0.0053670610494663765 0.0049425525319426716
0.003393458608295255 0.0023928780950900445 0.0033609387075546485
0.0027164273404083642 0.002706732462147041 0.006024727957227244
0.0032806502042293044 0.0015202622288508739 0.005637438687337542
0.003189147491304719 -1.5357966905759146E-4 0.004620623411117361
0.0016081113413257927 -0.0018688840977106797 0.0013966399485027523
0.0015509600076284548 -0.001890788100131544 0.0015199349470393195
0.001561341004472224 -0.002349995981704878 0.0014289405896255442
0.0014890008728532546 -0.00265517559612206 0.0017512891627964582
0.0019266017850195682 -0.002845944420678433 0.002758973926466249
0.0025075733098477646 -0.0038035484047666927 0.003935651774362371
0.002393554546227953 -0.0038247891490059967 0.003681170444794964
0.0024706950255980187 -0.0039944357307176446 0.003880965125079093
0.0014808927576811116 0.005637344024101762 0.005220392724939738
0.001442154351583643 0.005660347269610217 0.005251808455788264
0.0020731170881563396 0.004977564099034712 0.004669764193063657
0.002220105948436995 0.004035776549218863 0.006239419698915111
0.002951114836061577 0.0038197109526808774 0.003942134334631764
0.003389784374151482 0.0029353883167817334 0.0035038234294677926
0.0030419477063717117 0.0020457754364558507 0.005840175427854393
0.003236291995797913 -3.547432711496129E-4 0.004658099144263063
0.0015616717961818034 -0.0021042641572948163 0.0012035165957063007
0.001551223084577806 -0.0019166528479428353 0.0014515126554325217
0.0015528549416385594 -0.0019786671801668037 0.0015149831045129444
0.0026782522847917344 -0.0034581750907037583 0.00393082475814234
0.002741160681036409 -0.004287963636224169 0.0037549459728151513
0.002566722699336173 -0.004073630067970657 0.0038830512835501506
0.0024784734938743504 -0.004243493291176624 0.003726322391317661
0.002592915942043663 -0.004596556937297669 0.0036354968812574964
0.0015909239152533535 0.005545739577100531 0.005176091512028304
0.001543149945979275 0.005543328763656774 0.005307882112490611
0.001557811862669471 0.005571415352023561 0.005143128877686458
0.0015965716355779685 0.005424862696898689 0.005393359434412685
0.0022652294212419555 0.004179689893213375 0.0064193935746823414
0.0022854526425734 0.0035880744320680035 0.006260836571750777
0.0024074088934349785 0.003387421124679738 0.006264410943851083
0.0033339997052889325 0.003307095968234639 0.00359734628922467
0.0025557338231863964 0.003139356360213744 0.00639287058878287
0.0032556087324903775 0.0012095359020071648 0.005615896066367603
0.0018198705773034521 -0.001787079709648869 0.0013818158899767275
0.0016467110897475624 -0.001990273417535733 0.0012324215359569791
0.001545324305078391 -0.002193455151558176 0.0012356447589882906
0.0028617656033353566 -0.003879292471822041 0.003735897159874093
0.002944126137589648 -0.0043847292975789185 0.0034686488434568217
0.002020709570591467 -0.003873206860912614 0.002661624957051414
0.0028367126199161773 -0.004715528417133412 0.003578324100976013
0.0027333988162511007 -0.004818780814812772 0.0036062140182271836
0.0022209148627892125 -0.004146728811409153 0.003045764422755555
0.0026652859388850893 -0.004992430304182553 0.0034759003715111405
0.0017565315441242062 0.005362400674436371 0.005348519437672918
0.0017520069478756872 0.0053998334131958835 0.005190947209189959
0.001830172533881875 0.005288255566472493 0.004972548168770038
0.002407293652832206 0.0043547930760558275 0.006347368602647879
0.0022548007909094676 0.004116747290196715 0.006496161194300508
0.0023362782861728803 0.0037805858214399026 0.006529446509694315
0.0022634151512081835 0.0038455440834071378 0.006363680337502867
0.0022735118074696773 0.003886953308579086 0.006622069799787063
0.0027276741011489723 0.002319688025492404 0.006517099503299815
0.0028045095141726495 0.0023564568306387902 0.006303537929405784
0.003835712805393648 0.0013601721525388815 0.002632107405017217
0.0029887160694429247 0.0014893739240286947 0.00604785637087039
0.0032675500098167712 9.408889213263293E-4 0.005703990929648065
0.0026151876163913114 -2.423444393915539E-4 0.002528648971097507
0.003278877598163748 6.912344446229425E-4 0.005009487822709376
0.003273945980546735 -1.1759397510275119E-4 0.0047631058452875736
0.0017950420952080012 -0.002075949653366132 0.001140636634694883
0.0016703290194967349 -0.0022909528214505267 0.0010865950966211296
0.0015812587028380622 -0.0023557718773336146 0.0011111758805067223
0.0015314855721630248 -0.0021753362577843936 0.0013436911011478739
0.0015483581959960175 -0.0030292953856000107 0.001358815905416064
0.0016980989713114617 -0.0033422610160022052 0.0021564258489058298
0.0027476199646702037 -0.005137975305634042 0.0034077682296598404
0.002584868838747191 -0.004966892387008719 0.0033526666821998737
0.0018870389544026077 0.005289983484147985 0.005257652441580595
0.002313705042246765 0.004457370530169581 0.006499433188172744
0.0021627244446790796 0.003949974502674057 0.005925640814493339
0.0024267907151648465 0.004241379019431463 0.006160840623460367
0.0022561980235973394 0.004334376699290281 0.00655576247090969
0.0022403057493125323 0.004189488451168608 0.00661189783090782
0.0022853053474881963 0.003934446855856784 0.006491383345300515
0.002306201779451609 0.003670277745692979 0.006658942981617284
0.0022105406057312963 0.00367963749845933 0.006791660390172185
0.0020774270272015906 0.003677174575398293 0.00688681732500734
0.0020836514898173414 0.0033987908070638316 0.0067899253267613155
0.002470704301224063 0.003190481826962606 0.0066246910813056795
0.002408132574728464 0.003042220531000906 0.006725994934540266
0.002512728122544764 0.0025820244516782556 0.006621590603596704
0.0028960109820949324 0.0018617135879443404 0.0064207645384321025
0.0027971302806034585 0.002085862166706733 0.0065175096466772615
0.004012920354067251 0.0019124956064640768 0.002755447351502771
0.0033964565390393275 1.6542480405197906E-4 0.0022435382239868276
0.003274043131817185 7.177346351131245E-4 0.005640267704189381
0.0031404242933020803 -8.136032222639827E-4 0.004552349311518196
0.0025551481384332338 -0.0015595295643258196 0.001364584750229884
0.0020675903796782413 -0.0020162953935830784 0.0011245294524991132
0.0030160669687958725 -0.0048508168627116426 0.0031460497041027632
0.0017418843110918705 -0.00405298544013731 0.001910611617503753
0.002928363147841599 -0.004935278467392387 0.003351434735949859
0.0024403132187742643 -0.0046656359037205875 0.0032095940063075518
0.0028324754178054587 -0.00506607258933447 0.003429686549156626
0.0019309902746827215 0.005215913228198871 0.005396369262934182
0.0021353962464714716 0.005011856362582214 0.005014112801110187
0.0018695623915033523 0.005087423561779811 0.005507319224941193
0.0025801927049895392 0.004377060725158652 0.0044317026723295965
0.002356201180547774 0.004529030645751468 0.006483434750692325
0.002332081513808662 0.004572289711244948 0.006524481987687309
0.0021824716828316823 0.0042015763449230175 0.006665609461574763
0.002252097682718885 0.004169269337530153 0.006557993947426503
0.002257882368422953 0.004038030552208632 0.006634969322826859
0.002611485212169249 0.004290718907845895 0.004216273015281834
0.0019804765396201096 0.004020980811584307 0.006879447632323693
0.002274823464005026 0.0030363542605150572 0.006734005265679449
0.002681299148983607 0.0022269511735367262 0.006546470709340863
0.0028045000988595 0.001985253861600638 0.006443172718016225
0.0033871575239064846 3.875593951979682E-4 0.005193897659114263
0.0034258095836795037 1.952098506817927E-4 0.0051898950969559215
0.0033330124762438163 8.973767504376851E-6 0.004917655882256221
0.0033684104474148873 -1.3713909361918973E-4 0.004983360680029829
0.0023344910088214208 -0.0023151270294097842 8.823204606933209E-4
0.001958707903939099 -0.002426680940593634 9.449341341986156E-4
0.003060503795770605 -0.005069975865730713 0.0028649844611283054
0.0029973760156004263 -0.005188246432241547 0.0030497215521241156
0.0029158578618001373 -0.005289955749339912 0.003165023574821287
0.002821418967252246 -0.005365966046735885 0.0031700042979163575
0.0021119970494446693 0.005077997381801024 0.005376867577962724
0.002044603323987081 0.005152411969420896 0.00526476092606561
0.002375404976940088 0.00457954607436602 0.006484769861014088
0.0022203373163283057 0.004448756912362992 0.006616815771063618
0.002158378835816078 0.004391605614166526 0.0066559131593202795
0.0018514518963599787 0.00422515925076832 0.006809258127210425
0.001931267118839816 0.003939764816111088 0.006927374127331903
0.0037057392377232356 0.0027174096226113293 0.003195506088881044
0.002719871866110983 0.001482112710652141 0.005729533018796205
0.0029648515206546484 9.017959997266937E-4 0.005506203053566923
0.004239140790536537 0.0012274985770011019 0.002344435977682466
0.0031601084316782617 4.707626001639863E-4 0.005370869661591625
0.003221701009021009 7.027460876150346E-4 0.005636416619437159
0.00336783605192681 3.1465910812730004E-4 0.005304058232297171