# vtk DataFile Version 3.0
vtk output
ASCII
DATASET POLYDATA
POINTS 1480 float
-53.42619443451017 -14.592946991236836 -26.360115950733594
-52.08919952170991 -14.861397128575714 -26.27014652708187
-50.91688488540503 -13.862788233224194 -27.02947724010383
-50.87288362605861 -13.245821287638366 -27.51928413077827
-52.35349207091794 -13.536651876032934 -27.015149071935692
-50.0957449377629 -12.37367776981804 -28.10002890785401
-50.83098017705964 -12.664431654683279 -27.831863310237594
-49.780491125281635 -12.126085359374155 -28.170543751319386
-51.88476654772578 -12.107705798973816 -27.55148507824399
-50.42079590984866 -11.822245977591702 -28.221469593889175
-50.15772135679263 -11.0645707462895 -28.40128268436864
-51.05402392857909 -11.020192871753665 -28.001980759933748
-50.37010633797997 -10.54664169198985 -28.311211529722822
-54.96566161057212 -16.77125941421846 -25.17347204784441
-55.42064077216892 -16.195829320051708 -25.612725097500803
-54.09077164036373 -15.602430651120043 -25.766974395535268
-55.56445072106912 -15.564754395297667 -25.554459533205733
-55.07013772015272 -14.280045825315844 -25.542745999193272
-53.67593143614012 -12.585729351633425 -26.421550655177608
-49.25559892294506 -11.428813820985402 -28.200498861828954
-52.934668382876424 -11.006626651465295 -26.64668655013645
-49.736245373463966 -10.528858963085678 -28.35519834368111
-48.38981786994657 -10.032675111454774 -28.229461913234292
-49.51276173872564 -8.972638118384248 -28.244082688611325
-49.01540519903558 -9.11711753959607 -28.326751117907197
-56.08772120686734 -17.219523584831812 -24.607488921541375
-56.282050623851 -17.648115254190177 -24.04927421848469
-55.87611626825536 -16.75128466085051 -25.28054483889088
-55.741400702213056 -16.546551132814727 -25.483029714094396
-56.44442621579849 -16.29379880137755 -24.86812056444237
-56.489223350397154 -15.296779465259538 -24.80570454185919
-50.52877985678854 -9.584272099361757 -27.750550002218883
-47.64538063949425 -8.768348900266698 -28.42924535309195
-43.402333202734205 -6.202404275456122 -28.62011538574544
-47.55008170585796 -5.556101349301398 -27.782444906775865
-43.38725904037632 -5.06401534048187 -28.969881923687154
-44.336151734511546 -4.9588814856291465 -28.78027301010545
-44.874798303257684 -3.8734336857193665 -28.685237879871927
-42.42531982943924 -3.942607242164178 -29.047229838920973
-40.49635454566062 -3.2397422319441005 -29.29648444763603
-39.967199372071605 -1.4421075564776382 -29.613179370653317
-38.72580270524378 0.5415384853941749 -30.35764102736485
-37.243592683331265 0.15953636023814355 -30.26383212982243
-36.06781922497723 1.3086976135381483 -30.65936962367125
-34.014465475778564 1.8322204850460653 -30.182244734328524
-37.51671334010987 1.5880651904748933 -30.692603464887778
-34.979719126848565 1.805349243806271 -30.613736432211322
-35.87711008230001 2.342969067722967 -30.87652823989042
-55.34259027772898 -18.05914429237579 -23.528340941826983
-51.8260852048247 -16.714655052170382 -24.32337854244894
-55.95181417974749 -11.963114176179946 -24.363211167860108
-42.65749483802693 -11.605426413742354 -26.03866874609466
-39.22706015407252 -11.02030210630655 -25.604431355668435
-37.874137023748744 -10.162212178077047 -25.82300065964606
-37.34510406498791 -9.580035369323344 -26.021753615234715
-38.86370776379452 -8.950547197349797 -26.71603718951823
-46.589471438251124 -8.301682874144936 -28.48023548824832
-45.12017245626053 -0.8870446663435002 -28.445001290903058
-34.27824620341498 2.897346323597076 -30.541345936246028
-35.544010939585064 3.1819005094873862 -30.898000883485338
-33.14091706110902 3.74374079654933 -30.182147797285623
-35.08517876031955 4.213405374934359 -30.675597515649784
-33.86181254706413 4.154787766045698 -30.554058443115643
-58.72046798919752 -21.50048829033007 -20.582755308642454
-59.494963861155256 -20.728825525327245 -20.7507594256643
-57.39356922368564 -19.87911627807074 -21.493624960729992
-53.233425390253956 -20.31580787588371 -20.32178077878861
-57.20461779516397 -17.546297999179497 -23.342516642845734
-41.13540003610734 -12.819696884159725 -24.80884635584387
-40.1838213721259 -12.154790677874836 -25.058241297716137
-58.568349168051384 -14.968893052738917 -22.37789401642426
-46.98285547689104 -11.54849782740274 -27.3762541528041
-36.53104052121633 -10.081696916695691 -25.36046766681106
-36.29674338762407 -8.955318663540622 -25.978241475802847
-42.47716911832974 -8.20437974104819 -27.896136440316276
-48.93763082014117 -8.1972238059046 -28.134313650101305
-45.795653972736496 -7.4797151418623145 -28.434175162043868
-47.316355882884544 -7.676304986382404 -28.411094198775338
-44.30618274642954 -7.7988988475029934 -28.382341873650223
-34.90203270282173 0.6727909646293209 -29.98519341170862
-32.591240808389706 3.940928463368486 -29.913062743559777
-33.16743665072502 5.836988185037057 -30.12012335588579
-40.22399053552758 1.9338623184653387 -30.10763700468961
-59.31365276261114 -22.739476521391495 -19.644745398270707
-59.514078207276505 -21.752330954755248 -20.443729091458525
-58.43053831266971 -23.44702979425061 -18.672239616967822
-60.19332438259428 -21.86688887008207 -20.04933175707469
-57.50384445271564 -22.1499083344906 -19.679191783406075
-60.85292861662091 -20.652204820209775 -19.81974310331015
-59.73087657875797 -18.558329852684146 -21.01050946735242
-41.21411095195297 -13.861988975359989 -23.913409255860614
-39.69434878282264 -13.131459277099044 -24.071502520761786
-42.1242991605683 -13.247581289130487 -24.713929250072393
-49.453107199798126 -12.894842217486763 -27.461427439513702
-38.408918982363176 -12.085840138047688 -24.50389254367602
-46.68511604283186 -14.050805414450192 -25.47835590326477
-37.624795676242584 -10.988443543926136 -25.137767338818072
-45.59344579339741 -9.230448108109309 -28.0432494550788
-36.42812194203331 -7.809179089835488 -26.66046037096019
-34.89801531279046 -7.895592882449326 -26.076212049152765
-34.140846333706335 -6.955340040049918 -26.313057686207426
-37.29585784733081 -6.411726164860036 -27.50842139573157
-42.124327852312284 -6.9902308971090905 -28.391016754089335
-40.55681153596661 -6.486130004085327 -28.295960520486496
-40.24986630767322 -5.366351299565744 -28.75443691768479
-41.134727354876425 -5.2781420569057405 -28.828718535633616
-32.21928830841887 4.294528421805334 -29.763137822058507
-31.29960903204113 5.5268279900751205 -29.44303573237085
-37.06858607392407 3.3100316177764473 -30.731067841060437
-31.231478079949685 7.355313634483291 -29.649312622474344
-30.335589156439195 7.185172204238657 -29.186448634106252
-43.145635540349616 2.1119289690841008 -29.44293151048582
-43.25126312543536 3.3817894197906284 -29.34329517443317
-38.528918569622114 4.026841096545664 -30.37121137640902
-41.893702820744 3.4775610844285887 -29.71221079473254
-60.069591875009245 -23.794605049551507 -18.72723432035113
-61.030818325502345 -22.21123275642901 -19.21196653392948
-60.390767323982764 -22.894509209677686 -19.376093285171088
-59.09598777570721 -23.958685650853326 -18.34910543174747
-60.71722921034264 -16.88305161607603 -20.270435996371788
-39.78996699809351 -14.093590690109064 -23.19302719226864
-45.89977979734781 -15.452271782974906 -23.8646270756229
-43.63753468529523 -14.619058740936337 -23.88945574187039
-46.84223885109578 -15.67531940071231 -23.98156764676386
-49.87314459405212 -14.708529182675106 -25.982180298377713
-33.80359162212772 -7.596933842075845 -25.771759893256238
-54.28126205373261 -8.758194058780612 -24.692675603672775
-33.24588524933199 -6.326444817737945 -26.15429091497563
-34.045533101339736 -6.0610629413633115 -26.685260125641385
-35.0708462468257 -6.596773064249676 -26.803316931688535
-50.84079197140099 -7.623250912686568 -26.82013897933279
-39.14608498427398 -4.24669298392704 -28.785092914617085
-45.12664098635261 2.9548721627168155 -28.48479782146326
-42.754880770927365 5.257292586944479 -28.822151653622093
-40.01848797256532 4.982459282554115 -29.728738721900555
-36.83146299447627 5.9945024203743404 -30.08097904778606
-60.47518258800754 -24.333666194116255 -18.14426897486292
-59.78535688500183 -24.74525575878958 -17.603017852437578
-60.91189198291251 -23.568664106124174 -18.476468909113272
-61.68349105970701 -21.357848612888485 -18.4636662738191
-61.68000781009107 -20.291959364977956 -18.81012454848232
-41.87365068484432 -16.076229281492203 -21.851066073481068
-40.922788941209255 -16.094670590921428 -21.469146318627352
-43.098056713756996 -16.046302057389028 -22.268144836474224
-41.12157197853455 -15.125760772931965 -22.60218089979743
-58.36505646376661 -12.209965864413045 -22.15155707356295
-52.65856201052896 -5.94075701299924 -24.94079674446907
-36.46407465279578 -1.6345858747026023 -29.279378513650663
-29.238420519939854 6.716715654741551 -28.07718053860862
-29.967278239640645 9.30894288617329 -28.99217362118419
-50.63151694902717 2.7451255005723323 -26.171657733532882
-31.818517490420973 9.101931542226902 -29.709123404172317
-47.36438818601769 6.202893961756279 -26.40612620603259
-34.24745170258593 10.314537438694078 -29.55442232962258
-61.514040837267714 -22.71242319834633 -18.217079111069392
-61.324615323225835 -19.489221286908275 -19.351937523609585
-61.36415325932527 -18.31319501535525 -19.34601326296067
-48.33833768989258 -15.73027925087568 -24.42822967311761
-61.200632177733276 -15.645577053088001 -19.580530798209086
-58.18099830919953 -9.918470581997683 -21.53320211736802
-32.80609944409612 -5.593699063082147 -26.238751864934706
-52.41491175150413 2.3014448797562648 -25.93354273976698
-52.543181672336516 2.3627047606486746 -25.957426626218645
-48.459390322206744 6.316348008624033 -25.868862118576413
-45.71964885011547 5.6067972208351735 -27.379922008539733
-43.3469908550835 7.414630917116887 -27.63949885165602
-32.543535403683386 12.674185223373838 -29.70240574421453
-32.063585488057946 13.440086393266377 -29.749752837350375
-36.045187100797826 12.612849152707394 -28.61500097992557
-60.564984623501 -25.301647742950816 -17.184978257411988
-60.39227261705345 -25.182815679498717 -17.28894855393357
[...]
POINT_DATA 1480
FIELD PCA 16
mode_1 3 1480 float
0.004478160928169933 0.002480641139952721 0.004475790497436522
0.004469763474077334 0.0024923149926358392 0.004460533053698718
0.004375725907386983 0.0024805886866047103 0.004462149965687463
0.004333163917790342 0.0024703404813161 0.004480531027274919
0.004409300558287605 0.002468960817559092 0.004465292352768847
0.004282008447308202 0.002477421345615475 0.004487967280992681
0.004316001617697913 0.0024707879101911407 0.004484342105836025
0.004273402934360769 0.002485891388031221 0.004482933266506722
0.0043773133531155445 0.002462734131111913 0.004440844044850766
0.0042923910568461714 0.0024806513135592965 0.004483516478226452
0.0042896969266269505 0.002495044398774239 0.0044720755342619305
0.004342908159819543 0.0024701305903371443 0.004434824513058984
0.004311179247047711 0.0024849007830292182 0.004446791107080559
0.004619236681764921 0.0025206776690472814 0.0045297110697154475
0.00456592093293904 0.002508235402528139 0.004544801055945323
0.004543402684075793 0.0025005225982770566 0.004492344807971985
0.004578982538692404 0.0025073224714049908 0.004489275264727455
0.004592502897567977 0.0024834029503802615 0.00437968891520059
0.004507507300199556 0.0024505583900131826 0.004357055875144837
0.004265851682128072 0.0025070381693580272 0.004462712268621552
0.004494838590897381 0.0024054795384434572 0.004291165536167314
0.004286811159218095 0.002495631847953358 0.00445017502785979
0.004244400338755284 0.0025068074490092024 0.004433534416231421
0.004295302875212677 0.002445716234971671 0.004406168415252738
0.004271198436283843 0.0024673831605007425 0.004420185479579959
0.004702249037992228 0.002542046355289445 0.004517456701624827
0.004779641527048454 0.0025615175640760985 0.00448839694615714
0.004609419933479666 0.002519263148792827 0.004557400746962511
0.004581934115599592 0.0025123907302366873 0.004563192686761389
0.004666086117215417 0.002527474318896971 0.004475018650557487
0.00467782006771808 0.0025163826707656246 0.004383998181356564
0.004356469713718763 0.0024196969891910024 0.0043596231252897005
0.0042002748795571644 0.002465937460877071 0.004439794288070646
0.0038586972716309984 0.0021907780780690456 0.004563927598340867
0.004103735291593748 0.001966756766159888 0.004363461477295518
0.0037860950075990956 0.0020207099721879953 0.004617883537954139
0.003843817941204649 0.0019777233496785364 0.004570649186482444
0.0038064162649927356 0.001748905996772238 0.0045510885489353356
0.0036376880600483717 0.0018048990230004297 0.004672773926149735
0.0034433645517220105 0.0016864523758370114 0.004782159018465789
0.0032559491170439238 0.0012985673670505462 0.004856331073109212
0.002983794779283213 8.669222132044245E-4 0.005008074562035903
0.0029243365232753536 9.60800985318504E-4 0.00505661147129343
0.0027494733983762093 7.026178920656477E-4 0.0051538171093911
0.0026302092869455733 6.370648824476666E-4 0.005154531793652802
0.002814425143056135 6.348811509724395E-4 0.005096427653146323
0.0026584860804762015 6.056418271174972E-4 0.005183363648983952
0.0026568861220775774 4.7138094475372656E-4 0.005178380995499221
0.004849073672855366 0.0025675907982955627 0.004446151048686264
0.004691884194718747 0.0025668658979100386 0.004365725523555428
0.004754642487830414 0.0023744735957123273 0.004080770926115456
0.00409359949397821 0.0027588289346077016 0.004260890487647629
0.0038533106916415452 0.002947421676744471 0.0042566068011375465
0.003711906831851123 0.0029294668254390794 0.004336206815161164
0.0036404971880353225 0.002877566150478231 0.004396848934014802
0.003716214928471602 0.002673420988774154 0.004446127407937594
0.004139904984763136 0.0024428850492960947 0.004454566117047668
0.003632733297238733 0.0011223523513186247 0.0045171487107818365
0.002562124488635273 3.888689711795834E-4 0.005175421247712291
0.0025878722174369644 2.9637532800453074E-4 0.005176822649009474
0.00249341545713081 2.524610423459815E-4 0.005134409650553035
0.0025364738443258883 1.055991656676828E-4 0.005127008472065246
0.002487445161138444 1.349223024049297E-4 0.005152938759323673
0.005299396971776899 0.002774222547179406 0.004465570520316302
0.005252900832051662 0.0028070761621218415 0.0044193935101162945
0.005149418047226917 0.0026769124866487908 0.004397883092427115
0.005295233593358904 0.0025810397170422127 0.004226796575811154
0.004874689640561757 0.002590680714605685 0.004405287183342834
0.004102690495518666 0.0029915733565163975 0.004096310258497456
0.003987622405587038 0.0030206026429128517 0.004147658485883618
0.004984839866090672 0.0025136604702118846 0.004058314722974252
0.004232962981194428 0.0025714893526595697 0.00438638731329486
0.0035752482919526977 0.0030618960879332914 0.004355214868256317
0.003509892662148369 0.0028587353410599375 0.0044665286332176085
0.0039072492903462425 0.0024621293628111587 0.004486574277575869
0.004257082335950717 0.0023592993159581863 0.004391751938489226
0.004067446290353477 0.0023376670202029785 0.004468863437217824
0.004158498568422497 0.002346627462855862 0.0044362993798339224
0.0039937375432079324 0.0023977417841748697 0.004496127044012487
0.0027645412635125036 8.847057373432652E-4 0.005106294854650082
0.0024793208452389606 2.3889386819536912E-4 0.005103809511049835
0.002436064162327407 -1.540353738372792E-4 0.00503605556721292
0.0029970218988829424 5.689546899271707E-4 0.004903358510769682
0.005450171734357633 0.0028265757935765105 0.004482280774476195
0.005316289070673383 0.002836345245309233 0.004485710957588846
0.005610882147548045 0.002717631068677295 0.004420662508838546
0.005363059687852063 0.002885263107550419 0.0044552171015765744
0.005442914216170439 0.0026880432947696065 0.004399665734094601
0.0053584676200564944 0.0028581952849718348 0.004301373135814009
0.005181172935452819 0.0027204167352623525 0.004233792165223888
0.004199391591096267 0.003101254870284885 0.004004714546407291
0.004025083940144803 0.003225896819260046 0.0040379103719606615
0.004200052909380192 0.002923596944223494 0.0040927934264309105
0.0043111609013812184 0.0025052694288198105 0.004442499077109734
0.0038469435555415965 0.0032344097615616134 0.004139443048531845
0.004398418281180181 0.0026504591842687808 0.004252787153833935
0.0037225265805119075 0.0031135850526530675 0.004254491974852962
0.004113424502507696 0.0025095180490778027 0.004434756869718058
0.0034827384293994795 0.002613773019216568 0.00456090942213469
0.0033455990149761747 0.002747056963799918 0.004575460137431925
0.003245538981919834 0.0025868499229899466 0.00466233224492919
0.0034569374720087513 0.0023294777645002664 0.004652662827930319
0.0038284344442723072 0.0023292447259072877 0.004561940675428265
0.0036912332383141956 0.002274699937693403 0.004612333863246365
0.003600257255779514 0.002102800134356328 0.004693366844891792
0.003651824998165991 0.002076507333030207 0.004672934845072035
0.002463616350385729 1.8556845565563027E-4 0.005075688384318694
0.0024135787670967234 -1.9121538472876313E-5 0.004990521037535022
0.002682213603636348 2.7452708570854686E-4 0.005087888453979758
0.0023541997588907193 -3.8788709835600363E-4 0.0049375422347794195
0.002352506001022895 -3.093457993156296E-4 0.004892001063441384
0.0032031957936641525 5.305226300055788E-4 0.0047123642437800475
0.0031250404922231055 2.76456359333034E-4 0.004683246982973917
0.0027494329083037447 1.3956025312272027E-4 0.004965985849051023
0.0030094394487732933 2.5729033509058063E-4 0.004777008861631327
0.005591387875370684 0.0029075805332982765 0.004484931356159319
0.0054704775267707196 0.0029367186780243177 0.00438858696591359
0.005475107875696939 0.0029273089294723133 0.0044779276625409705
0.005661063534937622 0.0027845177974605774 0.004442437247947944
0.005247669779853859 0.002651456234495853 0.003969036805357223
0.004120871270110381 0.0033606489283740998 0.003943783545707277
0.0045588971012714185 0.0027502417561971436 0.004114818637175857
0.004400715176450692 0.0029101487926624986 0.00405790666975032
0.004595128223335616 0.002694496697283824 0.004152648518003515
0.004456731676398108 0.002535713607446655 0.004380157461682395
0.003211875609050689 0.0027777131170407705 0.004618422035685507
0.004693569619087305 0.0021323251020219894 0.003941151578622471
0.0030869792482339595 0.0025419687922655725 0.004722743731260647
0.003185865579415067 0.0024035583534653864 0.00472590737438158
0.0033085865330516537 0.002452631944701345 0.0046701541618901525
0.004398284073704453 0.0021758172347530118 0.00420873157384039
0.003430062398365314 0.0019014555192317277 0.004762454202688881
0.0033623428449742637 3.5667245920542655E-4 0.0045009834618183
0.0030325984410907543 -9.197866826639888E-5 0.00459183119159257
0.0028273783279167608 -3.767558488595649E-5 0.00480533637468191
0.002598808170429478 -2.2828117699229684E-4 0.004920809228478368
0.00567787314843221 0.00295364547685969 0.004471313531005277
0.005773581240176949 0.002865609981026632 0.004438784440535189
0.005604880630712151 0.002968574583793391 0.0044359014528073445
0.005538290474491293 0.002866055599994911 0.004189924065157821
0.005469456714206989 0.00281704672535147 0.0041214321414490196
0.004520622939350438 0.003291965302435108 0.0038385845229090064
0.004474704974309369 0.003488471372856313 0.0038024798878567817
0.004562506495386797 0.0031162185569935177 0.003911563011367375
0.004338466257341936 0.0032996939050107792 0.003890790396753875
0.005017511868150644 0.002342971967997602 0.003807507753992644
0.0045673033127859 0.0018201948669820246 0.0039023796084172104
0.003038826121074315 0.0013866330391916603 0.0049589041579144195
0.00237878473114303 -1.2073842272814404E-4 0.004745212672781178
0.0023234321931960636 -6.908188986818597E-4 0.00473678697761547
0.0039850092484205344 3.565765213758827E-4 0.003996004824937426
0.00233558551674186 -7.285622435946084E-4 0.004839105903309932
0.0034679934947615524 -3.067730490892478E-4 0.0041091781542328155
0.0024010659362642636 -9.908790300585794E-4 0.004717413258687897
0.005606340025306347 0.00293911507589329 0.004307914124255645
0.005389972747988086 0.0027788218353728914 0.004110624694710042
0.005373283676955151 0.002708227577225614 0.0039848411459630605
0.004589575604030816 0.0026348099472529077 0.004236904076335773
0.005318397826889643 0.0025542537679711934 0.0037411385918645567
0.0050786154750506775 0.0020959501318710797 0.0035608445186434776
0.002975224140457819 0.002435318200960452 0.00478054557435512
0.004201476719370632 4.568563064910001E-4 0.003899452797287074
0.004210334974696746 4.4613224262029296E-4 0.0038961397172388914
0.00358907887453517 -3.450103246590083E-4 0.004001422426127775
0.0033183187117382267 -1.7613789330007704E-4 0.004299161276144801
0.003037425174591513 -5.184203838653453E-4 0.004376069084825546
0.002274093063361464 -0.0014051399223831945 0.004645038475474403
0.002239109842427631 -0.0015384574826842203 0.0046177984659012405
0.002465345526841259 -0.0014119831870220967 0.004462945898617062
0.005833768776962984 0.002972483144695192 0.004452850705869758
0.005819356420723092 0.0029479506876713864 0.004451630213646016
0.005790503428634987 0.0029708224091396338 0.004423489264914843
0.005731856250606365 0.0029395298652985617 0.00431375441912498
0.00529003577958136 0.002235013774857286 0.0034434225976622897
0.003584990701211083 0.003424707391956214 0.0042242044489485524
0.0030840059260570396 0.0028122389012035513 0.004648165095040168
0.0028238248921673955 0.001230906969297532 0.005016467928915275
0.004243429449987132 3.612774623753679E-4 0.0038513621530426273
0.004052684343655223 2.669919347289466E-4 0.003950826900623973
0.0039372073222892325 -1.062235494377154E-4 0.003852594454568799
0.0033844988238760686 -5.193281037177234E-4 0.00407478642721779
0.00275075200424161 -8.744155833363135E-4 0.004455302597562734
0.0022257625613125477 -0.0016541102632237578 0.004580876674413045
0.0022946090894601784 -0.0016603587590720444 0.004518363822716414
0.002225321208058037 -0.0017906824894362487 0.0045320148903376075
0.005865603050929438 0.002974294806205802 0.004420133198727915
0.005843409598447691 0.0029788572913069487 0.004446441216008159
0.00576198542267639 0.002805256424878376 0.004089290771917472
0.004678380653275535 0.0033402337562015204 0.0038224472882274815
0.005471840235488926 0.002589409824508345 0.0037078879282086328
0.0054242611113205635 0.002365014974616544 0.0034317349660313284
0.0032188121202212224 0.003183463513510737 0.004482942034826681
0.002730802490572848 0.0010807894292980348 0.005039170863942625
0.0043310744142664274 2.4352948986449628E-4 0.003744779854326178
0.004122643270774456 2.8082248684718254E-4 0.003909809847222257
0.004014616536858898 1.8843149057846576E-4 0.003938811151972461
0.002272094487102033 -0.0013700461574666371 0.004578661368551674
0.0022730134457776795 -0.0019313643770696722 0.004301427380919299
0.0022319501360347806 -0.0018263131728132815 0.004476545151158547
0.0022567068667047703 -0.001947304901028218 0.004414281539369522
0.0022805656006070385 -0.0021609471099908757 0.00425487241609735
0.005930357068785048 0.002921980128157553 0.004349865627151959
0.005900285468042544 0.002875287614658714 0.0043969667348462025
0.005879927256002627 0.002960417632116776 0.004369743690656142
0.00586792761172797 0.0027796115425919535 0.004387089316254192
0.004547005775606726 0.003834194761457273 0.003735802041364737
0.0041498661251984665 0.0035209234615066116 0.003890226320361415
0.003879125488341842 0.0037190452410986482 0.003980628963461829
0.005532620242724172 0.00244811522003707 0.0034411758350204446
0.0032333711868663953 0.0042293865667334994 0.004176342029855407
0.0027671238501907613 0.0027205241118639562 0.004750577989781047
0.0044034330422640456 4.447970093688218E-4 0.0037177152478336008
0.004395950069659113 3.396530848586291E-4 0.0037233810093020925
0.004235600900296152 1.3509974957110512E-4 0.003760658133219471
0.002292520471263025 -0.0016222709589980965 0.004315115126649264
0.0023382621492953996 -0.001960061211554798 0.00406100998409338
0.0025883531820090643 -0.0016234567366337643 0.00421759919883924
0.002313108896534419 -0.0021996147935813256 0.004095414511870087
0.0022997134294213853 -0.002285308512960989 0.0041328759662590375
0.002440217590669523 -0.0018457999245206364 0.004259084568591243
0.002319736169833187 -0.0024064736649115964 0.0040775093125922975
0.006081516845869035 0.0027108814098999946 0.004280877370844461
0.0060636673885014515 0.002792621289467823 0.004255365570832087
0.005945469678218729 0.0028304979454664677 0.004196317295843521
0.005051504323514891 0.0035592885607917267 0.003710891693886492
0.004261871061044689 0.0041367022501367515 0.003743678249666409
0.0036607184651757775 0.004499525512978719 0.003911157334619512
0.004245364243151061 0.0037427811236047034 0.00381843706010121
0.0033406256487787797 0.0049990158032538244 0.003942966267134464
0.002067310349725452 0.0042519765202013475 0.004639401566030797
0.002581931964742302 0.003959176862826577 0.004518610922357994
0.005510719343779885 0.001850301878095997 0.0029405211813104655
0.002056828642703848 0.003415716291891041 0.004737602951987102
0.0023853476425674904 0.0027140952586264117 0.004835433597853571
0.004403126399713597 0.0012442398882529565 0.0038591192675324943
0.0030362009210199636 0.0020189861720141546 0.004836499226661604
0.002786609317603053 0.0013087129199790678 0.004997514216181286
0.004531985734099297 3.13385989651886E-4 0.0035706514404630863
0.004428912459965009 1.3515540953699758E-4 0.0035922467252951446
0.00432326299407921 5.370270478453142E-5 0.0036515196893925515
0.004104129311874812 8.975319832662562E-5 0.003832044639015399
0.003696734121874227 -6.743459851754177E-4 0.0037817511020234785
0.0028802986350238862 -0.0011734950264689562 0.004173193834411716
0.0023436840435074424 -0.00248712509577441 0.003982921264814825
0.002338963596467243 -0.002395159663453167 0.00407232393351924
0.00621953027343954 0.0026591700721859553 0.004186368153090052
0.004698058752398636 0.004147834941689915 0.003666167610290364
0.00484820397825407 0.0028503014538659617 0.00402583612194559
0.005331829129553922 0.002889909175466079 0.003829684532002094
0.004318725275901466 0.004424864787484121 0.003700231060330449
0.0038892849928792565 0.004762591635331752 0.003774351056830016
0.004016879571891192 0.0042254354563090275 0.003811578193842012
0.0029597518120912034 0.005093618153224091 0.004085473753512565
0.0025260522083434406 0.005427444957185379 0.004172965151494858
0.002094281857616114 0.005685857481065556 0.004241051141041618
0.0018175006643393822 0.005486395269691479 0.004320501919505156
0.0026704661968626133 0.004771589324302631 0.0042848633125004264
0.0021388206908773896 0.00495763177710443 0.0044249629480263035
0.0018119018828226462 0.004633102585098847 0.004581825096938545
0.0018944754643402347 0.0038914689493734955 0.004798118982196021
0.0018754363958790946 0.004122506332888089 0.004749859288741289
0.0057423932288191756 0.0019640581932273125 0.0027812140498777037
0.0052006874773995295 0.0013778569890979973 0.0030638290091449445
0.0022442830421383537 0.002586314403982675 0.004840127654808086
0.0025809201612232266 7.057088997668356E-4 0.005035471564267496
0.0048831286868715315 5.897836530428544E-4 0.0032083266857240492
0.004706808243536497 3.6875073981995046E-4 0.00339010190191926
0.0024002640370567744 -0.0022736933849612194 0.0038020515433699756
0.0028151623952514864 -0.0016805246791978246 0.003963234087907356
0.0023644929915135754 -0.0023310861778950806 0.003915453536506871
0.002372565962156847 -0.002199356188455727 0.004139406712908208
0.00234612147514542 -0.0024288456504652665 0.003965865797197264
0.0062548543424915054 0.0025499149479916035 0.004194045680039398
0.0062760743821583635 0.002547031888299416 0.003986783104046715
0.005932823063710691 0.0025544754662568357 0.004257043846907383
0.006137692310297855 0.002391337285752715 0.003615698990828004
0.004868889867800963 0.004075118721007502 0.0036476842431906005
0.004760158710077056 0.004293339224760635 0.0036342458218535816
0.003527307815934743 0.005195423474899219 0.0038259153999841552
0.004130443221522334 0.004407411811421985 0.0037410347932209168
0.003602988648081832 0.004904116986754746 0.0038525111228141853
0.005662761454974941 0.002623245442883014 0.003790031652088051
0.0023539968832590004 0.005926620208479922 0.004095542404312998
0.0017997944971518244 0.0051040682565708295 0.004441676557490757
0.0017666330894940472 0.004299738182477068 0.00470191364688808
0.0018271208428454445 0.0040338135807347604 0.004754054822158141
0.002710285230334228 0.0019451457147567153 0.004896360007244071
0.002599618752331 0.001837585127558452 0.004918654578224141
0.002744861810409802 0.0014991621657617358 0.0049586317408066155
0.0025843216379804602 0.001490245487179869 0.004917138387231643
0.004959320457958965 2.2242984842999207E-4 0.003053877494676598
0.004658671271991978 8.494788342039322E-5 0.0033141316141871375
0.0024522031182842865 -0.002424303908978892 0.0036160244726194334
0.002425614565381193 -0.0024937565045571766 0.003707873740829334
0.0024058598553672378 -0.0025624140489864363 0.003775964842761985
0.0023999610063815684 -0.0026201759058079865 0.0038108756686093615
0.006448752108336247 0.0024036613445902045 0.004088279761743249
0.006365756969363474 0.0025244555306680023 0.004098234090121227
0.004861962195913506 0.004247385914279691 0.003622713926474155
0.004099489106284123 0.004911950091495823 0.003700054142116314
0.0037245128117324613 0.005248386163408681 0.003756675268632174
0.0024079331099202284 0.006109465313165848 0.003996165142520088
0.0020770729321690877 0.005995376035349757 0.0041612533157351595
0.005716326411769278 0.0021990650945385992 0.003049123391917757
0.0017144779239661166 0.0034698357839049966 0.004482555027253116
0.0018218248010897686 0.0028837825411638126 0.004568080079271175
0.005795574918759596 0.0017506426701194191 0.0025480150267353906
0.002003422217023944 0.002429090588540994 0.004643949702655573
0.0021168182435577585 0.0026376170370108233 0.0047975556450672
0.00248503696270007 0.0020357430810783793 0.0048541852504883
0.002945833247742021 -0.0013978345659784149 0.00397976428140856