# vtk DataFile Version 3.0
vtk output
ASCII
DATASET POLYDATA
POINTS 1139 float
-20.173898281557765 0.04884104637661434 3.14896176890325
-19.75359619866511 0.3830209879626983 3.0043916393846106
-20.485108187780853 0.9637763655262371 3.172920293136362
-19.69163232170982 1.0297905569060022 2.8767649401767863
-19.6955987209796 2.0216638768494404 2.9575563273239536
-18.561142455660587 3.0145713517585433 3.1151133252407823
-20.694697545040075 -0.17902618723282654 3.5961779307909336
-17.914250315065612 4.605285334913174 3.890990653568445
-21.98944971323173 0.6101987104332981 4.464189627224429
-18.461428692531694 3.940187610035219 3.1828639755369466
-20.967511036266618 3.013736768707111 3.6216755309479356
-19.645464879251968 3.273015274840302 2.999176250553156
-19.96292147878298 4.109621608177513 3.1973614804210544
-18.413146796455063 -2.883199323994756 5.296978381382144
-19.489095742431104 -0.7839374917453074 3.6569608084425744
-18.713846063663972 -1.60317972824051 4.104635407445945
-18.093905190853626 -0.898973977891701 3.949296014989616
-18.649662460896238 0.8766266337568167 3.199157581680572
-17.085080409826432 0.34947681500491334 3.792370204562815
-16.655144754958837 2.2040621791706028 3.8337587886040416
-19.00356447362639 4.0794178342615615 3.141068985907137
-20.589583515575473 4.667910862592773 3.5870056930156933
-19.59898480731535 5.257379974260242 3.684180576648131
-21.532174951103546 4.909498815079468 4.332910749063546
-21.381352533451857 5.795353858002706 4.454234467902758
-20.838446341560015 5.694509643561158 4.143501975412066
-20.184387818528077 6.46046084863753 4.534149496102369
-20.90569506728716 -2.973459420756041 5.467794939061424
-20.951749775487187 -1.5037238680738385 4.576247597798736
-22.73265436663792 -1.456286901130541 5.598419277870292
-16.024032916690075 0.7563372278581229 4.1077731539189255
-15.653554889659667 1.570397485593546 4.104956003434938
-18.854533518673655 6.5815231891791885 4.716038431052005
-20.488479430157142 -4.212917658226888 6.428209811778144
-16.038429031705466 -0.9117067691931592 4.802176445820247
-22.401300214283594 -3.4303106396113145 6.646950956311948
-21.847022913056602 -2.4133783826510817 5.372305104559909
-24.590068671518907 -1.916237313863996 7.517398522755322
-14.867689459487016 0.8193463252449261 4.889007524385061
-23.97875797745005 0.24492603527791534 6.182848366976186
-15.781993243213496 1.985529568330538 3.9940671944678683
-15.221526705791812 2.254773756262487 4.566504618433156
-23.518010306937935 3.334088069274388 5.909490409040494
-21.726602711367413 6.455859987906523 5.48625984877906
-17.188231943003807 6.719452199283129 5.6021025689053525
-21.083156063053067 8.386468224256758 6.57846143521797
-20.01461964644216 7.676453048221137 5.61101100843259
-26.49277508332361 0.7714281177008329 8.33516900719447
-13.403909969612032 2.463691686992944 6.209692033058422
-15.40263794262435 4.528639266430004 5.36444541686998
-22.505890375603542 8.405076643176718 7.670661091549265
-18.55747951914316 7.982488771487566 6.083051033450577
-18.975409093151097 -5.545209098625239 7.3935810755831595
-13.758007223578524 -2.341213451136852 6.277342587903452
-13.50215203538412 -2.7406771397382546 6.490681076307154
-13.20386122970128 -0.9894434420775599 6.526711960525751
-28.47246008034595 0.8247670265022198 9.682678106155016
-26.448776920238213 4.051792323049698 8.502467816665414
-15.754678241576954 6.924241942554924 6.556694697467472
-19.904341389110325 9.172177123679818 7.315350594007617
-21.338428337416815 9.25299000128356 7.5948719002125324
-15.370745693959998 -6.449773167386398 8.184370474166275
-14.668832913599145 -3.0310791751424366 6.277228013316741
-12.476162443250933 1.332484743631309 7.047653165952731
-28.92705397161946 0.41626862698648637 10.038839692779991
-13.074459785232792 3.534807512062705 6.4431149053508205
-28.286627743301764 2.5494703261278033 9.861157499121285
-13.509884411679272 4.321075276440655 6.504045485885772
-27.10924804726173 4.834372824005395 9.177730402173472
-24.329558683953667 6.261484592409937 7.759073846845486
-18.996412461386726 -7.869215584183131 9.655744835795756
-21.375967490087994 -5.728913271469245 8.257352569877286
-24.168284691086726 -4.718062239528798 9.170381668456494
-28.435353490847056 -0.20227201844136952 10.013483433701426
-12.886571731609836 5.1146775134802915 7.789372049863055
-14.355791187755347 6.165042619846411 7.014170960582674
-27.639301691381892 4.415365030741096 9.614136548728593
-21.912782942038245 10.162090688355311 9.356961016463144
-22.788732961907183 -7.920428828981431 11.217256444679697
-27.016446191463118 -2.5438249731706337 10.175196386108075
-29.29513389976579 0.775337156360596 10.780190965758267
-15.22848853513785 7.592382461744431 7.540870755567585
-26.777918346381664 5.832361785625229 9.736409069004221
-17.186776201006765 8.861588308927832 7.978541429046039
-24.51279963826646 8.758338321800347 10.051128670118057
-23.357620288874447 10.052480296681889 10.085526362251338
-19.5673714418645 10.344839084219306 8.989616700420799
-16.158276480839948 -9.703979687847614 10.642672541735026
-12.515271737886499 -4.240020524648097 7.494032963781155
-10.652850813818748 -5.17586548693078 8.31075315022238
-29.317872635222578 -1.1445478684634347 11.802410519681818
-12.671026128326778 3.6527943140846744 7.021492109727051
-12.335046016399923 5.665201113366529 8.990302313055047
-13.048977354977895 -9.94926000692075 10.733374280767109
-9.831530251439206 -5.46148899530015 8.596205804690596
-9.317936027325903 -4.998395705665478 8.694602220366095
-26.197884712313503 -6.186365952893141 12.07838059497826
-10.22536099727368 -7.3930132585644674 9.254607093824955
-9.01289878137805 -6.06429741463002 8.931262354357441
-8.081353058084911 -6.146951652313414 9.33079110630419
-24.99828134491042 -8.132015764888322 12.605110051289655
-8.425823026052075 -4.93032555387267 9.303014512020654
-28.86155248703134 -3.906306549189069 13.182892748293805
-30.567887357934506 -1.4581187389670212 14.020175573575685
-28.747052847519612 4.539806139949951 11.29200482738795
-14.116664027607369 7.716952280016446 9.132188041998642
-23.543274583740928 10.517779617224763 11.085154411494335
-18.686730494669945 11.00338947014755 10.42495153625485
-22.070865938787172 11.491348035386647 11.886973107946858
-20.121936833190485 11.806536758619657 11.811666101536694
-20.432244240331766 11.242109543095507 10.412563844338962
-8.403890738378253 -7.620703476438797 9.403600225912868
-8.61655368472591 -6.950346666284183 9.17359896587415
-7.6190249411183215 -7.92498745123913 9.843516492245254
-22.892085244946355 -9.756367598160377 13.123539116206851
-24.04300027834376 -8.881373504684866 12.659381684454974
-7.742487407172739 -7.074708754011991 9.609515288698326
-7.8577144136146835 -5.672784141827205 9.495966002419737
-10.269204952211323 -3.242520889417816 8.44555900574688
-29.647396979647684 2.430043762119269 11.570862605857462
-27.688172879329624 7.273714131884176 12.405556441159328
-14.710129071119221 -10.751008017910538 11.144053303662005
-8.106188477354374 -9.272538987978406 10.779833070056098
-8.228809811404611 -8.274418056896677 9.830402588885288
-7.230269157369576 -8.62377665534995 10.583675704230036
-6.947142551440709 -7.560247965231936 10.475930436039967
-26.317660926941226 -7.862214284375621 13.463259861934702
-7.294617454183512 -5.751761976515782 10.20188564803054
-30.294604262696346 3.4646177124968562 13.084287208978294
-25.439104695966265 9.99659764503181 12.962460756392264
-23.751232482434727 11.141290290120367 12.527934682428484
-18.695093569476057 11.730356734681163 12.579393935817423
-15.75262891714893 -11.24364195907907 11.897627896802852
-6.876342252619513 -9.501593429062964 11.567163613125967
-6.199257063484236 -8.563213379130326 11.823822062584556
-6.154327071090678 -6.904990332982209 11.541562939509435
-11.070930199731944 2.5027468984884913 8.812803393279536
-30.597220731422667 0.8120264747434056 13.211388268059126
-11.722945759020122 6.801182878360773 10.682260590244052
-14.897458046704335 -12.428989823842421 13.38387787144083
-13.994759234971298 -11.475454049636175 11.908076803574732
-11.786589093561345 -12.203064578899225 13.126973124281312
-9.404733348134961 -10.633877884232515 11.934082490028686
-7.246320176618332 -10.450594414251178 12.359421655559538
-25.24643316784247 -9.17633145303501 14.047819850949494
-28.447259138955797 -7.476535586093255 15.419156495802785
-6.135256883089514 -5.025268445567062 11.915895821647712
-31.147078265285263 -0.2004040632663953 14.32110653939142
-29.618503989917194 5.417588210946299 13.232026777598401
-12.91080717307139 -13.723129907335437 15.15534680151776
-6.1473141860837535 -9.95771790435305 12.950068219088548
-7.647244121569471 -2.212916047716195 10.840023310904536
-31.631523336336446 0.13511683616847345 15.901562526502788
-31.17733212825904 2.6602874188743337 14.710716858675697
-30.72043513428934 4.738715439013736 14.733633077853982
-16.541687671313486 10.401406018031652 11.30804496743048
-13.632615086444707 -14.602020132557625 16.502715496345008
-16.137779952556375 -13.90673797968664 15.90801795528364
-8.836766492470726 -12.491492173300944 14.154557129308975
-19.13853164631332 -11.062855100444155 13.122871913037276
-21.21782219982427 -12.184296399607133 15.515576957114101
-6.405398654092377 -10.814107760145314 13.594217086501779
-28.614014547180744 -8.949857918486185 16.537779364123697
-5.40823499927842 -7.647461566438612 12.82954736688478
-5.477816908200155 -6.416247910674112 12.626310873168762
-30.652751940760517 -4.159810928433107 16.095739956015166
-29.685995371439752 6.66302744336759 14.769238512924883
-28.033324828535683 8.73753204203106 15.05354207594798
-26.195820682439667 10.47367330374135 15.490271138826138
-20.940828490194857 12.109137758462806 14.070161136148606
-14.65691415683154 -14.830360323617178 17.009116041709415
-11.635164379273997 -14.667180027545541 17.188846118891824
-7.229152607839887 -11.622416510899136 14.116886177677298
-5.525293071442293 -10.560676710062431 15.405643523213682
[...]
POINT_DATA 1139
FIELD PCA 16
mode_1 3 1139 float
0.004684248564360521 -0.0016167131989048697 -0.003238202099547076
0.004627682438010817 -0.0016396998737237616 -0.0032312757960437795
0.004742487325080261 -0.0017743954059029033 -0.0032670108050894733
0.0046245837601966 -0.0017273529464915244 -0.0032372748536352147
0.004648897100538666 -0.0018880621237625556 -0.0032735314408182687
0.0045173575597124505 -0.0019923695212380912 -0.003298981759112276
0.004764653465058023 -0.001643796638498768 -0.0032684750026875514
0.004490833864297923 -0.002216164644591323 -0.003403634992967187
0.0049776384829008985 -0.0019023629027318204 -0.0033591028718866654
0.004524168193558691 -0.002125745864264624 -0.0033311786342009693
0.00487702991116176 -0.00214653154174931 -0.0033730484998352344
0.004671047634386137 -0.0020817018188678724 -0.0033167213981857573
0.0047476123572860705 -0.0022329852887470994 -0.003368740955390954
0.0045013868432730655 -0.001331797295252306 -0.0033740181563021257
0.004603563541933147 -0.0015132704724014872 -0.0032566239895194847
0.004513862007509594 -0.0014055405374320416 -0.003277379742265116
0.00443425007680216 -0.001468443630283246 -0.003272901487532366
0.004496778971253946 -0.001685721196713053 -0.0032476453920679883
0.0043060456904310965 -0.0015902269750012177 -0.0032706897126513405
0.004265619301530813 -0.00182467254256374 -0.0033059032988641693
0.004605126183391322 -0.0021737008107999885 -0.0033443567208479804
0.004873193454932501 -0.0023664532520959397 -0.0034317534668799245
0.004749513616407902 -0.0023961108187584446 -0.003442501174533408
0.005047158945409442 -0.0024919631462253637 -0.00350543352862965
0.005064213222375069 -0.0026100164954895493 -0.003550610636877617
0.004967261416511314 -0.0025504845328899266 -0.0035157347685769494
0.004909836806242128 -0.0026280848331471907 -0.003559050107293625
0.004788166346016578 -0.0014261273989653795 -0.0033472485740426486
0.004803494064698613 -0.0015512645886349985 -0.0033104087348685023
0.005035459480974085 -0.0017468826696741336 -0.0033777398600658526
0.004177543240662025 -0.0016248925931231523 -0.0032953436409350703
0.004129228056011457 -0.0017161533708118354 -0.003300162921854618
0.004717353853283227 -0.002566217233145307 -0.0035519506460709774
0.004730032408051802 -0.0013453303077310707 -0.0034206940799613238
0.004200804024055407 -0.0014560281312135613 -0.003353809514542621
0.004949861851499889 -0.00156887923266888 -0.0034205736163212463
0.004905382886620163 -0.0015343892786263964 -0.0033400352310107235
0.005247981769943847 -0.0020025694493299674 -0.0034950409483763436
0.004048464213980112 -0.0016328582978662766 -0.0033769015414902652
0.005256233912367726 -0.0021187040825981947 -0.0034649907361798656
0.004144468331679089 -0.0017686423078900038 -0.0032957875050689174
0.004089674696294043 -0.00180673961699045 -0.0033611807792806358
0.005317475339294231 -0.002492946083250844 -0.0035546924807794084
0.0051773407769079155 -0.002764135557958918 -0.003641074397617029
0.004494744866722821 -0.002515340065695391 -0.0035953221273970623
0.005198343393192292 -0.0030083946171927606 -0.003780681281529767
0.004966787428256978 -0.002812580390558331 -0.003675229149614366
0.005629397963260697 -0.002560303485316262 -0.0036102350128921824
0.0038857931521368615 -0.001837868544528712 -0.003547266655184391
0.0041712556753075595 -0.002135275962024418 -0.0034969339138351298
0.005456932490920038 -0.0031599591775284706 -0.0038543495433891427
0.004762201132429466 -0.0027756863901329466 -0.00369545857495513
0.004568808781906853 -0.0012107383863671744 -0.0035439948684774457
0.0039754108168774905 -0.0013051497717953555 -0.00350867938259827
0.003957382706730801 -0.0012711824990314028 -0.003536183440764695
0.003893011645293146 -0.0014605096161321093 -0.00356129324043261
0.005906031234906657 -0.002830493549572993 -0.0036694700280189146
0.005841041636012951 -0.0029687907671070283 -0.0037449087004333566
0.004305112734365282 -0.00249386297392542 -0.003660560884690068
0.005063784976427292 -0.003055282070835598 -0.0038396807666479134
0.005310443768167526 -0.0031734526939156443 -0.0038776640147270137
0.004237229419370554 -0.0010331366054868564 -0.0037146298260438914
0.0040913376685227255 -0.00126013671482114 -0.0035048023460035583
0.003777393395479067 -0.001714077383620842 -0.0036434606414713303
0.005934086207213167 -0.0028497283977906036 -0.0036687359758750945
0.003845062458588942 -0.001955150869779056 -0.0035717081944590607
0.006009623073610818 -0.0030406531785152815 -0.003744779766768662
0.003917869703437346 -0.0020693956541514894 -0.003593134239775148
0.006009390582296152 -0.0031571666459438504 -0.0038181402347930845
0.005631978261570145 -0.0030365703472362312 -0.003781475990267039
0.004534949831485942 -0.0011474029481648518 -0.003802538925088212
0.00478400963556834 -0.001395938592275972 -0.003566643539418242
0.005061340642917848 -0.0018024601235995142 -0.003587590793858694
0.005811862129519548 -0.002744336541683663 -0.0036565713961360683
0.003862136195179807 -0.0021902683333092365 -0.003753597734656079
0.004081016718334002 -0.0023467249177358033 -0.003679510130895116
0.006058811230726091 -0.003186714782102775 -0.0038159925907697663
0.005492207275449151 -0.003401906613738699 -0.004008344735272682
0.004774474533104891 -0.001540563500977041 -0.00382546501505757
0.005452730600378602 -0.0023876337842032853 -0.00364003802409489
0.005991069045603526 -0.0030018679057868315 -0.003715747179330991
0.004258240367669344 -0.0025833193927893372 -0.0037630539734650713
0.006019909094416839 -0.0032986789915398847 -0.0038705753619111827
0.0046208422599618385 -0.0028696168418118535 -0.003846229711159833
0.005847665581193043 -0.0034823415158275863 -0.003990333641126604
0.005745864935831566 -0.0035339369903531915 -0.004050341591583615
0.005100344421556129 -0.003235992365686158 -0.003979831944369062
0.004345848749096347 -8.528842062392934E-4 -0.004024633832893924
0.0038888863779050014 -0.0011598437526300855 -0.003670219640248727
0.0037106226206291624 -0.0010825480066656264 -0.0037937508354648976
0.005788852860921037 -0.0028995121000180432 -0.003726331034650259
0.003800311792234871 -0.0019805380781651436 -0.0036483090415906526
0.0037991738024018037 -0.002276412181585083 -0.003903514617242103
0.004152163415801596 -6.84079251898685E-4 -0.00411777351662798
0.003619419292398343 -0.0010678124225464364 -0.003839888647622019
0.003533656821147763 -0.001124093486399861 -0.00385966091798025
0.005065265827036199 -0.0021107791487783353 -0.003769329133794944
0.0037560702257583034 -8.887967963642974E-4 -0.003925736853140567
0.0035351922411118513 -0.0010298395481300204 -0.0038915749182024634
0.00342084015064904 -0.0010479368142224637 -0.003953190608989481
0.004850133437551989 -0.0018390083568847256 -0.003846664083947907
0.0034208935853467307 -0.0011571109577602635 -0.003951108523187992
0.005421476609643388 -0.0027088165915355304 -0.003811562206472726
0.00580656682242086 -0.0031985246448379134 -0.0038417289272166745
0.006224661353937176 -0.0034371353674680486 -0.0038731428207651967
0.004106695859174044 -0.0026051356919728186 -0.003921450959328739
0.005817174560698347 -0.003657404544112756 -0.004107254552722464
0.004998164376021745 -0.0033153952057396346 -0.004083011300305268
0.005625331052556446 -0.003692766371686466 -0.00417457707633004
0.005299941213131861 -0.0035735312963343963 -0.004185920773437683
0.005314542302468404 -0.003461113082803667 -0.004096816671601294
0.003540030976975296 -8.928333454503301E-4 -0.003954523895958241
0.0035248158267555743 -9.554566372644349E-4 -0.0039245401682761775
0.0034721366311840697 -8.780801282077836E-4 -0.0040181569461591755
0.004631626280438946 -0.0015338177992297755 -0.004078076979720234
0.004752292212726842 -0.0016763718400141074 -0.003909108527367061
0.0034303303479897252 -9.647535046069467E-4 -0.003988929115865921
0.003374008229972559 -0.0011017197776734488 -0.003979325467960791
0.0036038172989111186 -0.001284450861438836 -0.0038246056791938817
0.006168004036541465 -0.0033005841398458776 -0.0038028433239416584
0.006265235728995077 -0.003742447561096983 -0.004008354309274532
0.004295578444314733 -6.734028800878488E-4 -0.004133385765055852
0.0036614470560496393 -7.073578519955186E-4 -0.0041603744335598864
0.0035754997991795314 -8.237312098297459E-4 -0.004014370593153072
0.003498559856785156 -8.053827186204974E-4 -0.004124634336192337
0.0033872769983783356 -9.33827016625036E-4 -0.004109723928588338
0.00489486919581752 -0.0020843042725631903 -0.003888148154178546
0.0033271467209608275 -0.001110075461498338 -0.004077613933197561
0.006324198220425545 -0.003613771529455857 -0.003887164006807451
0.006102179091421097 -0.0038787344005497483 -0.004139430672115328
0.005902866365822439 -0.0038265061471216286 -0.004183965968238571
0.0050396682217332825 -0.0035109721811690245 -0.00422994825680714
0.004340688244418019 -7.231416273011131E-4 -0.0042432978222000884
0.0035576715571035817 -7.017054180179368E-4 -0.0042738307980949965
0.003409749252678748 -8.334612466204547E-4 -0.004304498404374286
0.0032793094929027943 -0.0010271926249544833 -0.004260286442170729
0.0036035752785377 -0.0018809560805060047 -0.0038894294416399254
0.006083282565066684 -0.003362646467054918 -0.0038226443659472903
0.003709347170342874 -0.002435714389024874 -0.004111124328260699
0.004283037853812842 -6.143639660549831E-4 -0.004591315656331194
0.004265809726084172 -5.8869366997174E-4 -0.004300384067945991
0.00415830064333933 -4.451326271153892E-4 -0.004600551312111423
0.0039082526933244535 -5.4684456831248E-4 -0.004364612639711244
0.0037011931972572715 -5.707880737981854E-4 -0.004413420857982857
0.00472132746175492 -0.0019074614428532222 -0.0040533125781632645
0.004923484559307514 -0.0025432368553012716 -0.004048938242195965
0.003184398318346127 -0.0012174418816078946 -0.00432137545309682
0.005994348171909258 -0.003410500006976804 -0.003852706886191819
0.006410092765844153 -0.0037778370430970997 -0.003958064034262282
0.004206818317728323 -3.970041274670228E-4 -0.005076363143471732
0.003556459185303871 -6.504331636138379E-4 -0.00449159810458002
0.0032501328402875333 -0.0014430537763307264 -0.004180973611269127
0.005991013164726801 -0.003610173740550357 -0.003961786635386156
0.0062977453516031515 -0.003745184939153248 -0.003921374500988336
0.006464954882029719 -0.003927407150970074 -0.003972443076759007
0.004601533615097964 -0.0031578780678247678 -0.004129781768276819
0.004188982373234546 -3.993605241964854E-4 -0.005429681830877436
0.004207221878184024 -6.91322617917914E-4 -0.005165622094365502
0.004029321864572306 -3.1546566794282525E-4 -0.0048004946311034835
0.004421217796039007 -0.0010848072506858607 -0.004353189824031026
0.004315998279566587 -0.0013556622664610747 -0.004713434543424628
0.0036806296757299255 -5.279040701013035E-4 -0.004613195498069386
0.004689689825623507 -0.002560059446929402 -0.004181981605606748
0.003272980144370089 -9.630288940208537E-4 -0.004444501349304232
0.003191081177580142 -0.0011001227745647136 -0.004414117337179194
0.005397023163594664 -0.0031171696099879243 -0.0040311364244183774
0.006497135929325624 -0.0040368074610309095 -0.004036571321810414
0.006406936216520779 -0.004119478249667461 -0.004124237183241117
0.006239281768142189 -0.004162102679569056 -0.004213602265613374
0.0054539970338685516 -0.0038043766483553533 -0.004292051439074828
0.004162829303745863 -4.970365054774625E-4 -0.005535805285509937
0.00417042254064891 -2.567483652508447E-4 -0.005633005315074573
0.003843400578441788 -4.1306094480125923E-4 -0.004742354616042368
0.0036169567354297277 -5.712402644309836E-4 -0.0049080378436925235
0.0034035145376517936 -7.915000583730266E-4 -0.004581375154215598
0.0031804490600204245 -0.0010749309772518495 -0.004574837267682165
0.005072327244626595 -0.002914363373591514 -0.0041229019779308864
0.003321846294500537 -0.002241740110889102 -0.004296860114586569
0.003474429115418976 -0.002655080277844301 -0.004439644582277521
0.004069477107480982 -0.0029554665069799787 -0.004278811988501496
0.005919761480689982 -0.00398486405022258 -0.004247215216323988
0.0057792439526339395 -0.004057433809210158 -0.004319466371464443
0.004137300167580685 -2.4273080204203858E-4 -0.00517859786112649
0.004238228055099122 -0.0011379900047554156 -0.004958411486277468
0.0032583534784232622 -9.579175493631396E-4 -0.0046458945463898685
0.004754146274765718 -0.0026167530347599704 -0.004087440600236965
0.00471335901357274 -0.00263338958563829 -0.0041071367285866935
0.003117420753865112 -0.0012046408534226235 -0.004553135312569253
0.003008551712305957 -0.0016049986532839196 -0.004455288266779836
0.006532795044841173 -0.004126780952544259 -0.004031570244826941
0.0029836505749664672 -0.0023509352486901884 -0.004585607176234374
0.004144069738363041 -3.908425995262232E-4 -0.005807321169585017
0.004092474606447063 -6.9225553448011E-4 -0.005772727838234147
0.004130048736409153 -7.580954394847024E-4 -0.005459370798639618
0.004176227234272932 -0.0017029989896136463 -0.005184027074553995
0.004460272622413962 -0.0016078139603308871 -0.004441433045901735
0.003360315364578344 -8.37151302557994E-4 -0.00481794577869717
0.004743348069737633 -0.0026827855809252454 -0.004175728093649356
0.0030651012868032693 -0.0012708529502332023 -0.004662322951516557
0.004905745378435747 -0.0030318561227301753 -0.00439485409022665
0.003039628189715444 -0.0014021017918691894 -0.004530800122701022
0.00558823451039715 -0.0036826289378777436 -0.004262361320736803
0.0063829072182036185 -0.00406841972883303 -0.004025144002207317
0.004806061490178293 -0.0036292586157728687 -0.004422744512684163
0.004140131189575314 -2.935425273339607E-4 -0.0060299384410156046
0.004044475797781077 -2.1602432110324666E-4 -0.0051073629095482785
0.003984557816323355 -2.5723911606462263E-4 -0.004984265051181207
0.0030261590257892206 -0.0013218235851555208 -0.004712636008939421
0.002946337784898976 -0.0018979850524767719 -0.004503504591087254
0.002613140464407584 -0.0021798559866706784 -0.0047582159480079
0.006444508754451727 -0.004377766270012913 -0.0041933129308479025
0.006051694250957404 -0.004299657940001034 -0.004310038182347265
0.004140992723621666 -2.401030156278458E-4 -0.006210946866184532
0.004080802979051498 -2.0094560997971605E-4 -0.005426082819536919
0.004106276978139375 -0.001013150545050006 -0.005452105844171621
0.004001267495377096 -2.2216129124222995E-4 -0.005105123214018718
0.003728248404870967 -4.769981198674497E-4 -0.005328207602344576
0.0036258540098173843 -5.816458818764285E-4 -0.005331165365764229
0.004531659191460212 -0.002195552746776551 -0.004436537192521901
0.004303903811406071 -0.002434443432004669 -0.0048822318290376995
0.004378782422948068 -0.0027561647469940783 -0.00487310447861306
0.00456713983959321 -0.00262537658727825 -0.004462543293918326
0.006104965407837518 -0.004072710775247958 -0.004125267544504022
0.002827098997241807 -0.0017956567977133286 -0.004623784096332264
0.0028692761169923963 -0.0016683323351961111 -0.004641243732117324
0.002417851975133716 -0.0021630590326752056 -0.004872378401834448
0.0024190312196419525 -0.0022694853627306384 -0.0048587797935510345
0.006537367462339887 -0.004322879024702394 -0.0041076275751019105
0.00658989666519868 -0.004542182156296843 -0.004168132522337454
0.003921358458700454 -3.2465322876528037E-4 -0.0052957634602292716
0.0037043294706785913 -5.114012518100483E-4 -0.005449525055486974
0.003134271283375668 -0.0011495768708684913 -0.004895218351637884
0.0027253621013488835 -0.0018140900176525684 -0.004741305098198711
0.0026175861484384784 -0.0018228051495653105 -0.004892050355653701
0.006374282300630085 -0.004408837856593993 -0.004148857737446966
0.0024274999306113116 -0.0023353691234674224 -0.004859621530439533
0.003089982482588301 -0.0027290372093307625 -0.004725278560451927
0.006605144594283317 -0.004617870306807533 -0.004177282369144503
0.006458972437524093 -0.004599839681720121 -0.004218726791870045
0.005540806825181025 -0.004046640832721328 -0.004385017617969375
0.004124127904133212 -2.602834606584272E-4 -0.006572219517694639
0.004138795547914195 -1.9618838886557773E-4 -0.005764390578285937
0.004004317174779375 -0.0013118516449547885 -0.005716861948514959
0.003108158688973037 -0.0012701847962530797 -0.005437777611517728
0.0029235911450459333 -0.0014614664633238203 -0.004797666589603901
0.0027434532976340943 -0.0016827628434701646 -0.004874828982888066
0.002477137088594444 -0.002010241550205589 -0.0049319041543917285
0.002288431263170722 -0.0022263231614795226 -0.004950321356121626
0.0022562425756096956 -0.0023183964347632683 -0.004963693545618045
0.002356895472599865 -0.0023466592835897286 -0.004911230021883727
0.0026064344977288862 -0.0024238248693313987 -0.004818367091211884
0.006552587525503113 -0.004583403950438445 -0.004164418744950081
0.0027547101429108295 -0.002698939356604222 -0.0048904620395687284
0.00413027557322498 -2.332169105051898E-4 -0.006683452114029839
0.003970348684368266 -0.0015627952590408403 -0.005808587174067111
0.003426166886161068 -7.914174874438732E-4 -0.005139201561494047
0.002617133783865435 -0.0017861227760384026 -0.005023791325484922
0.0022292762841128375 -0.002170988839397876 -0.005027675163835518
0.0021941222388768156 -0.0022474555418088202 -0.005020514938762879
0.0022896451810334125 -0.002383171902373956 -0.004968654678535929
0.0026981442729831673 -0.0027773264379576156 -0.0049760610312019615
0.0037936307365173953 -0.0032157808952668564 -0.004665057379352165
0.004072115639833992 -2.778748186475432E-4 -0.005862404152635509
0.003996208813446694 -0.0010407578262994859 -0.0059094148258974225
0.003522703573734945 -7.69044630113126E-4 -0.005501785438293309
0.004218437535289459 -0.0026460323510490214 -0.005046735015419898
0.0021726483830094433 -0.0022675727396942688 -0.005076487516731801
0.0022384130689175117 -0.0023665944092101363 -0.005033409888976066
0.002456194775557805 -0.002549803746041557 -0.00497641748131078
0.0041175817096649305 -3.507655053079447E-4 -0.006746384146623416
0.004141256404966654 -2.9034226439585495E-4 -0.006643119334726787
0.002827266713233267 -0.001544997174682468 -0.005163762245574633
0.0022669762457679385 -0.0021165555147334516 -0.005065277517508835
0.003078130122955427 -0.003043644207973082 -0.0049559798717459195
0.0040789908344030104 -5.081684787775102E-4 -0.006446904369907758
0.003974740660138353 -9.882123397729737E-4 -0.006358154242366054
0.004137115558982103 -2.93529197579142E-4 -0.006307481093081195
0.00396948421465335 -4.514366829410172E-4 -0.005942711649003748
0.0039347295648596865 -0.0019415524106704384 -0.006094460528177074
0.0033235415905710727 -0.0010030348406410944 -0.005435326354215095
0.002952843328010693 -0.0014986169353627416 -0.005545850686586653
0.002539962347047516 -0.0018855537794636608 -0.005253866210362249
0.005995172346869398 -0.004391509088749163 -0.004358288300892616
0.002308499022885503 -0.0021030814544138678 -0.005174678792300981
0.002195002602882807 -0.002209381985114836 -0.005127965380925931
0.002203616461480841 -0.0023904568505827735 -0.0051793552860006
0.0037452733029255483 -6.126373656957082E-4 -0.005707717228730964
0.004207638985513117 -0.0026951486257442785 -0.005090756762004983
0.004175840961460959 -0.002616342146913908 -0.005370359639953655
0.004556394398619254 -0.0030878391286805413 -0.004963215410233636
0.005056398077535057 -0.003663365544512282 -0.004883824726982888
0.002636176431699163 -0.0028404844744094253 -0.005076097276390117
0.003989466251297074 -9.653509272134177E-4 -0.006809788005676691
0.0039278758684520845 -0.0013777858594515035 -0.006155268997326447
0.0032965682422699065 -0.001163662644236541 -0.005731023435477661
0.002758776612759629 -0.0016953993816350569 -0.005472076283264915
0.006277666152763228 -0.004753806197792813 -0.004236398417168825
0.006382887482437804 -0.004709949065963404 -0.004245700236059272
0.0041433270699655815 -5.254840518041192E-4 -0.006946399534898103
0.004097029511700545 -6.737364143577284E-4 -0.006980653075818482
0.004038529779510781 -7.806388790803562E-4 -0.006916129732223036
0.004452345911088803 -0.0032265809919279948 -0.005370079061859401
0.004866409721730022 -0.0036709629210007096 -0.005201264249689799