# vtk DataFile Version 3.0
vtk output
ASCII
DATASET POLYDATA
POINTS 1139 float
-23.234221651082574 4.06193125219756 3.967930434598033
-22.787509609407895 4.387164039573407 3.858616678706768
-23.413238965344092 5.09823966478102 4.0494442112330855
-22.64367535364579 5.094167278154023 3.783578470181315
-22.522128734929932 6.177662558915464 3.9373892315473014
-21.315388340365246 7.137689657955996 4.175663953949634
-23.764663352371485 3.854266906404361 4.370193746540706
-20.517505861139536 8.78077070786289 5.030776287605079
-24.903053795343347 4.828872197179111 5.216960965029984
-21.11012363029189 8.136094261747193 4.314098036312867
-23.617356523629784 7.372291823065443 4.620016447407852
-22.318157847758446 7.539004436242393 4.078962081395503
-22.521064351564494 8.47692086084304 4.331237464033085
-21.94105906833656 0.5838527274227968 5.909134706609389
-22.689625065773658 3.0544489063756095 4.415006025208276
-22.055041584889043 2.0535401364311707 4.811376178324018
-21.359982447302492 2.7691266735300637 4.710416946505377
-21.66548672903208 4.80245493677926 4.094157556359341
-20.222154800058867 4.041953123700709 4.641746448322841
-19.58253712615249 6.034060986429964 4.803493266987651
-21.609966240226857 8.345659160210072 4.283810523617326
-23.055204227651362 9.134667497831549 4.731020002501859
-22.0463524610472 9.667684702323795 4.87811112206076
-23.933449362114615 9.465703160350216 5.419817644150106
-23.68882359205779 10.404905862012855 5.605546046872051
-23.179989712576962 10.251730016711774 5.321298201057431
-22.48168940378128 10.998097893378363 5.746140187660582
-24.361192562044515 0.7431028590513692 5.992957502961775
-24.193325005052426 2.395674657525445 5.220825764378498
-25.8939205939216 2.6100509078358263 6.145658997586643
-19.142259677605274 4.375100341297881 4.9786911317363645
-18.685144432320534 5.23389713674825 5.0240341779953095
-21.209899483123657 10.988306805556492 5.937189122646659
-24.15271753659649 -0.7032763320282447 6.866647297782602
-19.35823594106317 2.5318002404758473 5.572156921269214
-25.868935589297504 0.36442195608811423 7.049020052055077
-25.182816321184106 1.4682685708197125 5.903712548576458
-27.73163847842829 2.2417752973693186 7.873924189293214
-18.006014495960056 4.324211429650916 5.763707228978835
-26.84923936041024 4.587996427485775 6.755395518935632
-18.76168455729055 5.704530914734614 4.939864573840167
-18.18787633654957 5.936514319676194 5.523117022934501
-26.02497627058115 7.904773358935942 6.7044112152525335
-23.965622261156792 11.11049228439829 6.584004667186708
-19.623650178717423 10.945785485151555 6.782425871969407
-23.176023640980368 13.080919765615961 7.732701760092499
-22.214267181519716 12.250768999561219 6.8223329174603755
-29.162919881796455 5.35834334952974 8.709476856915467
-16.396461283782937 5.985024260151672 7.177674031277948
-18.12256374081385 8.417147941437609 6.43821596794391
-24.548848755511656 13.194468008665794 8.68643856201813
-20.811305703836663 12.422030084890906 7.298326275441224
-22.90254938757066 -2.3608768387565546 7.7932370831883535
-17.288662348845342 0.7099064568670821 6.992208264204312
-17.07951603925868 0.2483156497186528 7.196951562558771
-16.57817344062617 2.1715281285520134 7.331293718110384
-31.009331649007976 5.592226936784095 9.885766400428468
-28.728864324728388 8.89403864641752 9.043449873583256
-18.243694678171625 11.007006988168037 7.704984695375654
-22.002235690967833 13.781912530146219 8.480567416844837
-23.35702688865309 13.994274147727884 8.709026140834444
-19.504802093188147 -3.706185263703007 8.669632705329175
-18.282559501702856 0.037565024550426394 6.9493470177599175
-15.61678887381863 4.664450930188413 7.971783896052319
-31.48554723614759 5.188515921795818 10.178688590252136
-15.958450406227131 7.121788675782974 7.454989610266763
-30.6412124212636 7.414595124174697 10.145824260898248
-16.31010861486022 8.008443223990126 7.549092080499406
-29.26724404011225 9.780735752376703 9.684187626117179
-26.490984248866333 11.0740201931059 8.56762829499467
-23.33650228829296 -4.993357640894059 9.870565379050444
-25.255642067925343 -2.3387214917433736 8.518756926079497
-27.758688418994122 -0.9440988264285077 9.321625151740598
-31.115160691821767 4.454241830219184 10.148875998729938
-15.657410898270792 8.792819101510089 8.853825935060563
-16.97442887447818 10.056992544778529 8.120539445183011
-29.818831310557414 9.364994025370189 10.042194831728308
-23.870254534238768 14.947721170335596 10.347641055641958
-26.98352359614982 -4.68966935878984 11.187196426750987
-30.124041339612152 1.7222913143539127 10.254377490735866
-31.808179009878906 5.5679355461796805 10.873191536914186
-17.698624518584385 11.653295274195871 8.682155974285822
-28.872397941594198 10.782671289089794 10.266905395349703
-19.478595567640717 13.17079007870055 9.123996060371011
-26.472146215295446 13.665174840582882 10.809647358403303
-25.260464836263097 14.937435700591777 10.959180858207624
-21.629441488245988 14.939341250174792 10.087061964467235
-20.932792728325307 -7.337834316343203 10.894101037700764
-16.27151545577305 -1.4706378828556073 8.17763437492957
-14.477076619058247 -2.629945801452699 9.023232030926412
-32.10501336919894 3.42709510240154 11.746579032909214
-15.562390680460732 7.213892230448209 8.043638887489749
-15.116607384142641 9.314505135830657 10.061840869601134
-17.883854099158054 -7.820729330903303 11.145474195399496
-13.645532837478523 -2.9911258987586247 9.326595105746044
-13.029899843100702 -2.4905248221671386 9.461772710968132
-29.909693443336508 -2.430617951535537 11.925419434209566
-14.373901949700606 -5.084738714976131 9.91729889053515
-12.84148165551317 -3.6794228299260308 9.676918720271901
-11.850595950307643 -3.765585675391849 10.125062851506426
-29.096697508587344 -4.717668183404754 12.393130065058847
-12.091534634413891 -2.4021996755464277 10.126517060342254
-32.082148396127245 0.3072326121600708 12.953497556659418
-33.371050509420535 3.0967040496155005 13.771360789808423
-30.889142796970592 9.52066581895173 11.55129060019577
-16.68405059844702 11.643025863461753 10.225453835936943
-25.4330448230932 15.403642686109617 11.889868150520988
-20.80799564085766 15.50137385728739 11.463548062664259
-24.007354269417238 16.265780623867702 12.726260919891807
-22.15309817269924 16.42774707309048 12.736924502827527
-22.42220241730591 15.918230959284141 11.416492898342312
-12.41652931176956 -5.397825925989191 10.150291358896672
-12.534332079043763 -4.662777521692814 9.917877136420465
-11.637916120646281 -5.717264512142849 10.632317175384815
-27.407827008173133 -6.748924633684801 12.916805175555245
-28.3294821720669 -5.651039124259089 12.457084055298276
-11.624756997913513 -4.782746008398205 10.405584254197189
-11.557107798063406 -3.2252397154420303 10.319286679783474
-13.847257473101953 -0.48890161404297994 9.255065455137736
-31.965687983379837 7.33784295917212 11.670692559504452
-29.666911900119494 12.270746721070843 12.764302278088188
-19.73751592058957 -8.656731699912807 11.425709819200957
-12.525433534769343 -7.182887858799358 11.507257612424151
-12.37550962912553 -6.103266862914626 10.57781957756542
-11.405296297231988 -6.449555372045641 11.385690227047771
-10.902241251429048 -5.253510943029604 11.320520739174471
-30.285889403494917 -4.296892222391164 13.157828414138082
-11.020103278714657 -3.2621083491162297 11.074629649398066
-32.50415702487509 8.421130698510066 13.099192119958406
-27.337205590347168 14.92933081409006 13.509365811014272
-25.635359978119972 16.01722231889808 13.234118000023841
-20.875535989654427 16.18004439680642 13.48841078772838
-20.884364205432075 -9.12711752005165 12.069349771558429
-11.285833748556835 -7.387453504626234 12.368262788180182
-10.382932238512412 -6.283489486059284 12.696584862833591
-10.030557059105107 -4.421827473367461 12.46680021384623
-14.14737449000956 5.842145916771138 9.830809009676301
-33.0940951921244 5.595187672014158 13.09803820068701
-14.523672099343711 10.439569296649598 11.773082939613156
-20.35504823436352 -10.506623420240226 13.488417335188352
-19.211354746124563 -9.516213234344706 12.174618946091801
-17.216607900901614 -10.418679386184618 13.452680196393844
-14.316283024227927 -8.691695082356802 12.515216052635521
-11.979108574455902 -8.456008647099473 13.095694427269683
-29.505283634317344 -5.870219827254524 13.705298318318606
-32.218500092819326 -3.6974934628191782 14.936220789765164
-9.820676043115819 -2.3304472618507663 12.912685261199291
-33.76194421772272 4.49576009031055 14.080464567910877
-31.674295048042204 10.43395624442161 13.352862013377083
-18.808257287344382 -12.092076958751733 15.235189576511038
-10.72778235601242 -7.840308780510366 13.775783169753842
-11.116359474795086 0.6516440603501958 11.84846765615294
-34.250094124639695 4.80397477878302 15.587253221976544
-33.482626971725715 7.542786854979684 14.559302440670283
-32.83180433654874 9.722450892195772 14.680114103147721
-18.892214392159115 14.628719184552349 12.317351379390258
-19.797076826649096 -13.051321031075782 16.407899386519045
-21.96102105471318 -12.05419728400005 15.729080344351852
-14.336283235042076 -10.801919288221074 14.648618075463554
-24.118979591940214 -8.586107129057767 13.050434103639741
-26.303398829727303 -9.62753877368492 15.16543406778235
-11.271692716078359 -8.824129439677145 14.362348782677113
-32.568587172647 -5.295507370290746 15.914462072517312
-9.452393268933937 -5.163194972429601 13.789002465078424
-9.319539235665951 -3.793561367793837 13.622155128710707
-33.85743907005016 0.0839008820019162 15.64006820698465
-31.679851906542485 11.674087634651647 14.842558464809107
-29.965481626802866 13.71062297550664 15.276557697603032
-28.12768496322542 15.364998957319898 15.837815561360191
-23.02707557802499 16.71096172820687 14.804198751600785
-20.83695173572651 -13.22723205582035 16.806593284386263
-17.926011135832002 -13.238386005904466 17.193476919430687
-12.417158096028816 -9.78355485400618 14.776922684609035
-10.470866231868733 -8.501858613553033 16.22130023999156
[...]
POINT_DATA 1139
FIELD PCA 16
mode_1 3 1139 float
0.0030401008533242737 -0.0022194718508099665 -0.0024477837606760137
0.0030008413305969038 -0.00222255302613968 -0.0024401709800003298
0.0029827491802506775 -0.0023874194872498793 -0.0025951781697169675
0.0029519996564862866 -0.002309897141818048 -0.002509413622711119
0.00286866198588731 -0.0024579827643820967 -0.002642127279840832
0.0027385276643954637 -0.002492277064331573 -0.002643887247948144
0.0030608648220268016 -0.0022495880079703347 -0.0024808745133022975
0.002593397198406147 -0.0026734836293265 -0.0028077742983804136
0.0030312590547232334 -0.002519198859736602 -0.002720499440427161
0.00266293413782563 -0.002619308167887698 -0.0027524877943316066
0.0028362677841971607 -0.0027446368609204803 -0.0029375286810368988
0.0027625689532134994 -0.00263774705854814 -0.0028044235528798854
0.002709307097207861 -0.002794392295764644 -0.0029670060132017955
0.0030028337515490625 -0.0016449125104450082 -0.002084229906321987
0.003038483299592973 -0.0020346098469228428 -0.0023029313964493827
0.003030396537586317 -0.0018401940949133455 -0.0021649403697831023
0.0029613308693845278 -0.0018804809939062307 -0.0021782284615438764
0.0029031948506265596 -0.0021869667785949067 -0.0023917743355985717
0.002841866314624684 -0.001963309621504462 -0.0022019924936755707
0.0027005340558825482 -0.002197861229783286 -0.002358410158948256
0.0026737806712153183 -0.0026929286874671624 -0.002839968080971367
0.002697014519878739 -0.0029432406044668192 -0.0031361633514468404
0.002618670293431655 -0.0029297420052949853 -0.0030956097950593947
0.0027300386061063996 -0.00308338709212213 -0.0032930754195552563
0.002670366775863638 -0.0031939053974094243 -0.0034124942002057342
0.0026475397313054064 -0.0031212558898202148 -0.003324625163132453
0.002583611200750123 -0.003169827339272353 -0.0033531014182190447
0.003149745991512854 -0.0018980951937430152 -0.0021934859317313798
0.0031115782992554874 -0.0021022119474138896 -0.0023615544632585366
0.0031408560859476527 -0.002323765692221285 -0.002509081189119351
0.002748445636740882 -0.0019263391272721438 -0.0021572649411507774
0.0026830432096338237 -0.0020119131772586714 -0.0021924388267067886
0.002522727893625051 -0.00306003493250015 -0.0032081239878219005
0.0031279515894585023 -0.001687587215208344 -0.0020596110080088434
0.0027933437715944543 -0.0016941761820780143 -0.0020814034659069314
0.0031713285087281435 -0.0020200632093240727 -0.0022423933740539875
0.003172621167093243 -0.0020813711231294453 -0.0023140943092898832
0.003148637891238755 -0.0025028762913373993 -0.0025825096709211773
0.0026286218314788856 -0.0018433409876952266 -0.00214734513690812
0.003078263868246047 -0.002715360742539588 -0.002853893774338737
0.0026710801573071818 -0.002084071183304811 -0.002233747163499427
0.002592865286166028 -0.002083057159256218 -0.0022715734410745404
0.002917546107426915 -0.0030910708236341704 -0.0032715473799594845
0.0026813580410151934 -0.003333353277174425 -0.0035467564241020762
0.002445184025295781 -0.002934846052504747 -0.003063841039365491
0.00259530732042107 -0.003548558452051396 -0.0037624158518486826
0.0025410408961238904 -0.0033375173349494917 -0.0035198086642618683
0.003100758337423243 -0.003103361397772476 -0.0031341237820814993
0.002367569123849587 -0.001984097454951712 -0.002336695169027491
0.0024472239146044903 -0.0024498290000243097 -0.0026093316501814103
0.002716719885038731 -0.003700524692893044 -0.003929744797973831
0.002463861948382568 -0.00324909925113445 -0.003402948633216947
0.003029570141969639 -0.0013453107291385117 -0.001934797778454838
0.0026270404242923167 -0.0012890498597214444 -0.001959349273065394
0.002603406883742646 -0.0012104436319234058 -0.0019496748458086906
0.002484564120470474 -0.0014557505677688812 -0.0021032294858978743
0.0031517106464624 -0.00335641747726535 -0.003283142374305067
0.003028013592847122 -0.0035312661387099536 -0.0036818976966038774
0.002351340566356113 -0.002847339353017748 -0.0029814582866440355
0.0025279218448895097 -0.0035554200629874856 -0.003749404733417849
0.002616212237549037 -0.003702574726243428 -0.003925787136203928
0.0027590894328241872 -8.594097044858159E-4 -0.001889524710951856
0.0027083980436085615 -0.0012726199622147309 -0.001961269025092521
0.002295079219755662 -0.0017539251517064776 -0.0023096725756883854
0.003168095082538464 -0.003361631739014633 -0.003237630167009381
0.0022929331725419105 -0.0021164187927819396 -0.0023915007116961325
0.0031409289947097858 -0.0035525169440556565 -0.0035562341221222456
0.002290051666420589 -0.002271014440636466 -0.002511294101449879
0.003051404105349678 -0.003708657555941879 -0.0038850109051287154
0.002876666094780471 -0.0035946076255383486 -0.003805498916154611
0.002969890880050015 -0.0010453133673797661 -0.001839967846704411
0.0031140023048124668 -0.0016003430956347572 -0.001981131643005501
0.0031468247172370418 -0.0020896059107572054 -0.0021815553529988996
0.0031656558057317004 -0.0032222598890926527 -0.003085604838138728
0.0021629069021815934 -0.0023577032636003773 -0.002710666931208853
0.0022729850532479568 -0.002621511594752556 -0.0028133206433100227
0.003090450768701412 -0.003716141418276818 -0.003841599840633239
0.0027095002976941446 -0.003901500890204166 -0.004128034270633207
0.003056124845901222 -0.0015117839252746135 -0.0018326133994889782
0.0031621147411467544 -0.0027440779241351557 -0.002601961390390016
0.0031989016667152673 -0.0034523586146683245 -0.003284149442809627
0.0022808035049633594 -0.002912623872860282 -0.0030860134765366117
0.003053026165584177 -0.0038092180547263533 -0.0039678438607601285
0.0023908562433934623 -0.0032752911674449633 -0.0034587839475539194
0.0029253432128090303 -0.0039681658323211496 -0.004173384088318284
0.0028319609547332466 -0.004027864335034638 -0.004263675970408407
0.002536983827779516 -0.0037087364079345466 -0.003912342739838467
0.002816129134410323 -4.6643814189714384E-4 -0.0018056134072298136
0.002481984625755495 -9.230239945274603E-4 -0.0019565548829017644
0.0022752793808867708 -6.403187301449712E-4 -0.001975594267378944
0.0032265135674528463 -0.003217161230224241 -0.002901561011838031
0.0022220933226747746 -0.0021126529333056606 -0.0024688317828137464
0.0020573807050850903 -0.002412556240470654 -0.0028947834972261476
0.0025781128320527293 -1.3920258537531091E-4 -0.0019024210812229343
0.002173069610119188 -5.3752593077041E-4 -0.001991347605300387
0.0020824701577893717 -5.780376579521051E-4 -0.0020426752603453203
0.0031174041518088487 -0.0021882471947636496 -0.00201326349065203
0.002238522650581114 -2.9188085647730596E-4 -0.0019635822248829514
0.002064684862310185 -3.955837459908734E-4 -0.0020075442621286686
0.0019089121824227059 -3.390632721620211E-4 -0.002084379716273874
0.0030665742323705996 -0.0017843116664989246 -0.0017473436502244849
0.001914612148739946 -5.568402710662021E-4 -0.0021595913634553385
0.003203317675587056 -0.002825366418411836 -0.0024051387767348824
0.0033286591073418757 -0.0033366739113151484 -0.002832288204331525
0.0032059461056007177 -0.003863636318713068 -0.0038626173920810773
0.0021823914320431206 -0.0028626338719873025 -0.0031901810955128596
0.002902242694236526 -0.004119225428458674 -0.0043426530293012786
0.002524587770281787 -0.0037452512969446934 -0.0039750766962905115
0.0028458055286753885 -0.004130225965038564 -0.004359274081630406
0.002689316495789395 -0.004003479099076275 -0.0042449236952042
0.0026419154465968666 -0.00392932369549983 -0.0041524178069296145
0.002001328238386226 -1.2569372206652538E-4 -0.001996407106253436
0.002022444119346965 -2.3713812791762557E-4 -0.001995965664707836
0.0018757926564665077 -4.773277462590558E-5 -0.00206660132109402
0.0029851189694128847 -0.0013069178577299152 -0.0017236259587321118
0.0030403142378948346 -0.0015609700283713806 -0.0016949186132346557
0.0018743054570377555 -1.8241674264823173E-4 -0.0020799261261669694
0.0018479939228891683 -4.1083233420573223E-4 -0.002148383718763384
0.0021401949792384653 -9.227326725661894E-4 -0.002146355910750271
0.003240600467307016 -0.0037011260558604962 -0.003554430169401224
0.003238879613687927 -0.004108549951851138 -0.004157002068458395
0.0027490971795524717 -1.4826466499119089E-4 -0.0018046923321924859
0.0019695342921148694 9.80057147090189E-5 -0.0021098767975132227
0.00198108303851435 -2.8861483519317877E-5 -0.0020263178993809197
0.001812788003246051 4.882605181917892E-5 -0.0021511346504883306
0.0017254447200575598 -1.0789376180354943E-4 -0.0022149840390884123
0.0030700285278752034 -0.0020067140846840854 -0.0017737709656156359
0.001724132969378038 -4.0433993463842105E-4 -0.002277435632273869
0.003351328420360864 -0.0039049194272563815 -0.0036899371658683892
0.0031593499984837623 -0.004250325566913213 -0.004391078094186619
0.003008672023297709 -0.004239960299842219 -0.004445798265782828
0.002618985061782315 -0.0038897473743628127 -0.004180596946524485
0.0027877808846806756 -2.0060034671752516E-4 -0.0018226678222373052
0.0017649931674310567 1.6085877947725165E-4 -0.002259818547612459
0.0015984751919811224 1.2853691564021939E-5 -0.002394194487208377
0.0015210731660224518 -2.446342958355683E-4 -0.002461543362371494
0.0020094759609118134 -0.0018579906642063166 -0.002620492901387084
0.0033368197296482233 -0.0036150430822697727 -0.0032432335822829114
0.0019259554284728514 -0.0025581328014708015 -0.0031940979837689117
0.0026792633105420026 1.3850892421277989E-5 -0.002004034231041537
0.0026789003503201315 1.062389863365946E-5 -0.001885514345259563
0.002449657897848943 2.5455019188917293E-4 -0.0021335833737706846
0.002166039445655295 1.9383639816626994E-4 -0.002151557227019967
0.001850877884737134 2.623273537061024E-4 -0.0023064507418381693
0.0030122909145865982 -0.001707300936783968 -0.001707890988597595
0.0030919709109136695 -0.002362929647084659 -0.0018702460754212297
0.0014343257078318066 -5.657428012925147E-4 -0.00264281199985913
0.0033905018522306526 -0.003558627792906098 -0.0030455707869816158
0.0033600717188628938 -0.004074478385155205 -0.003966738591040511
0.002512661190831302 3.3612633986947806E-4 -0.002328327391732622
0.001639864043822976 1.8583860565698641E-4 -0.002481697946611232
0.001618317762857638 -0.0010034638723578422 -0.0026093115475091188
0.0035419290916023295 -0.003648933804342229 -0.003110390335238253
0.0034873950783445742 -0.003906499932642392 -0.0035205915839609993
0.0035101444473904955 -0.004110304800431194 -0.003841498410349745
0.002396859074494891 -0.003496598578537088 -0.0038171994289786936
0.0025369767167188776 3.6215386876786964E-4 -0.002489977874527743
0.002652326264934749 1.1713429050390998E-5 -0.00226051746603169
0.002132735753066758 4.547673544795411E-4 -0.002401951324206979
0.00286200560975228 -6.661885010712064E-4 -0.001860612977402861
0.0028385432452318997 -8.298723136433953E-4 -0.0019271911696963654
0.0017194669415403043 2.881366023425941E-4 -0.0025161795305719266
0.0029689621581578092 -0.0022442732067360863 -0.0016400789349669729
0.0013893339776340592 -1.7720365380552786E-4 -0.002652383717224916
0.0013501859017970102 -3.6799870045363387E-4 -0.0026965526765527835
0.0033465406022006304 -0.0030233294428815 -0.002430258581343421
0.0035070556255007773 -0.004243603987053813 -0.004092535654552258
0.003481943393911466 -0.004349863939718835 -0.004308552315798493
0.0034249477833380336 -0.00441428029665653 -0.004468214234727429
0.0029015719723378534 -0.004160910655861452 -0.00442293900838635
0.0025729927391397495 2.6978417544213604E-4 -0.002511289489821103
0.0024128635566531345 4.8693045632686605E-4 -0.0027404296483029933
0.0018852193452384314 3.675967401342865E-4 -0.0025184962228157527
0.001561223412307774 1.4053516060534517E-4 -0.0028795381112638866
0.0014445652035118643 -4.521759091930546E-6 -0.002695512267715544
0.0012651528064974234 -3.770487730962316E-4 -0.0028749695969858356
0.003232091090267429 -0.0027069868431409947 -0.0020892758045394995
0.001611935240496614 -0.002243592398875163 -0.0032277254761410605
0.001683776925893843 -0.002758296419150509 -0.003650207944549524
0.0021158592610052004 -0.003175537655207205 -0.003739063508957284
0.003156554075224602 -0.00432379522458041 -0.004496892222945977
0.0032044348899477556 -0.00435131686387693 -0.0045443431474376005
0.0022733674024748084 5.022460231289732E-4 -0.002560357992267659
0.002767868662673559 -5.225936827054238E-4 -0.0020720335341970282
0.00129311673179499 -2.4218743584666468E-4 -0.002886233050742017
0.002978915642265578 -0.0023395464591734545 -0.0016103252656200137
0.0029566002343375582 -0.0023312296591919165 -0.0015633349083272175
0.0012494834265431326 -5.756314769627129E-4 -0.0029163476492194166
0.00129068223776641 -0.0012273140883714557 -0.0030012087478757973
0.0036391265079349262 -0.004245780948529248 -0.003955953380274602
0.0012743472921359256 -0.0023360159726849255 -0.0035747486725882668
0.0025068317866638805 3.7151017977228394E-4 -0.0027554390868006775
0.002592748696868058 7.082065592761442E-5 -0.002644198586857544
0.0026332169323897486 -6.28396769462287E-6 -0.0023910443502655567
0.0028373526343839473 -0.0010708735045989715 -0.002173858584830047
0.002907519962532488 -0.00120545551387598 -0.0018046756983698625
0.0013314782838386478 -1.617143239470602E-4 -0.0029966886150999497
0.003024090675074818 -0.0023730628532159176 -0.0016948405090356907
0.001175490543912065 -7.138848471161619E-4 -0.0030784200698195873
0.003338561534892676 -0.002684097802049058 -0.0021722552299281166
0.0012411272268311338 -8.989341708640311E-4 -0.0029875485087686453
0.0038344861193847237 -0.003457732032972874 -0.0028990583889807135
0.0037295520324763494 -0.0041142586787080845 -0.0036878771529927344
0.002673663616111372 -0.003897918991600917 -0.004357720146114892
0.0024412666866055793 4.393142175666637E-4 -0.00298565077108411
0.0020397714976015053 5.366217273849507E-4 -0.002660642710141072
0.0019653774792696317 5.075494948487653E-4 -0.0026226097313953416
0.0011404561869540794 -8.101580191910504E-4 -0.003161534710472555
0.0012590028525723451 -0.001701841669160836 -0.003221135730310285
9.464817954166735E-4 -0.0020941198814833245 -0.0036369789644096736
0.003734755677448337 -0.004500564467118267 -0.004382002019883251
0.003571881284125345 -0.0044843908054430425 -0.00455276846483535
0.0023715267619506637 4.297995076932873E-4 -0.0032259327390572936
0.0020957283287523503 5.003549682148107E-4 -0.002880681179745433
0.0026731962877244953 -2.817912238844909E-4 -0.0023545441969314747
0.0019453013931111337 5.257055199542406E-4 -0.002722923373978155
0.0015889562853264464 1.0295052880945724E-4 -0.0032489766020515646
0.0014816085951688943 -4.541680167848596E-5 -0.003358340319879132
0.0029437849846018294 -0.0018034892247668897 -0.0017824467809174369
0.0029608520452480192 -0.0018697428303536203 -0.001965847110433753
0.0030874007441123955 -0.0021933062614693907 -0.0020429427036439125
0.0030134179066535357 -0.0022026906908167716 -0.0018034423893235035
0.00397959544074272 -0.003961236576508963 -0.0034040636425854516
0.001102832594824617 -0.0015304308904241146 -0.003287793771141339
0.0011116014994520433 -0.0013341205690531397 -0.003245263153601976
7.748861934051389E-4 -0.0020708805216233268 -0.003744074260022028
7.782596695148998E-4 -0.00221204633159941 -0.003782152834948156
0.0038036758445164753 -0.004392414769929442 -0.004116699208068788
0.003982768102584642 -0.004563111910487771 -0.004293741018411625
0.0018636835247529202 3.3938640018970755E-4 -0.0029914755135761607
0.0015411834351127733 5.92796508358932E-6 -0.003417643669178081
0.0011781492773137328 -6.332820635329953E-4 -0.0032779776392825415
9.995520462777788E-4 -0.0015679099243137 -0.00343113626191261
8.856851667456195E-4 -0.0015998287640292934 -0.0036099095972699754
0.004161702163986575 -0.004323005809374727 -0.003857346627888088
7.849326045040802E-4 -0.002301322983780199 -0.0038194969376318146
0.0013611266004830151 -0.0028062631319050865 -0.003976432041189063
0.004083866119924655 -0.004605515345406401 -0.004302962541452134
0.004082235195510467 -0.004609741458165487 -0.004371548782243393
0.003195274610325983 -0.004305313903371225 -0.004565496619004956
0.0024002621032911506 3.7662769585788264E-4 -0.003466364604544298
0.002249050644224635 4.829294341049594E-4 -0.0030206416698773924
0.0026961633688226106 -5.595811160600576E-4 -0.002496038763697597
0.001176036210695786 -0.0010546125805814457 -0.003968712030203493
0.0010769569491846875 -0.001052662001842576 -0.0033286542259745406
9.62801965628053E-4 -0.0014006204321084154 -0.003524863470827095
8.172908567756956E-4 -0.001874559045926244 -0.0037508907314503363
6.767568625301489E-4 -0.0021504458127038434 -0.0038649640094470983
6.552981983343216E-4 -0.002270990429481616 -0.003927631564519113
7.324831905420762E-4 -0.00231115512696739 -0.003885517455322561
9.422773848333508E-4 -0.0024158388510074017 -0.003845384018843595
0.004137195386625063 -0.004550379966330644 -0.004197939247250412
0.0010846235474722492 -0.002757942648965744 -0.004117925162845153
0.0023898073561923043 3.7523656080342446E-4 -0.00357564512444492
0.00276391326693629 -8.11976953457586E-4 -0.0025689168324128696
0.0013388929236798628 -2.508733213124682E-4 -0.0033190460685483167
8.742381812824599E-4 -0.0015897883063507447 -0.0037550694486636876
6.381625815510602E-4 -0.0020804131276342614 -0.003935119567927608
6.136591651198811E-4 -0.0021750107686435206 -0.003961645177211029
6.87126027809535E-4 -0.0023557684218174233 -0.003975652941877239
0.0010571475046797158 -0.002851524114128376 -0.004269351318071248
0.0019666636338412364 -0.0033888123101985432 -0.004286163754764322
0.0021061983255755176 3.0383142485981395E-4 -0.003320629376101432
0.0026409352435700175 -2.640675163802416E-4 -0.002669844519498349
0.0014282654899938688 -3.7969373745903905E-4 -0.0036818256731212364
0.0030009688789898593 -0.0020190097736207525 -0.0020416740233661066
6.129503086113112E-4 -0.002210528270073915 -0.004050160859150518
6.643890033110328E-4 -0.002336110792809675 -0.004052893044907325
8.425239524887498E-4 -0.0025701924526125167 -0.004106112304242084
0.002447233661241732 2.5644894698983084E-4 -0.0036325002662218964
0.0023973573446094787 2.848077883478414E-4 -0.003638189847281071
9.982060705919227E-4 -0.0013120140682788982 -0.003805828246822697
6.707491730179054E-4 -0.0020246963011900207 -0.003962179554804544
0.0014167538561686446 -0.003169465923098823 -0.004457272070770631
0.0025110815278354217 1.9130130799623328E-4 -0.0032897797367981946
0.0026534631451905965 -2.2533315627657583E-4 -0.003098261776536795
0.0022980017448426576 2.610390184630484E-4 -0.0035356144273957437
0.0019811097008911476 1.728376342563637E-6 -0.0036373394306953534
0.0029634634383236234 -0.0011750071609345095 -0.0028737753661325334
0.0012938183860037775 -6.805489239194054E-4 -0.0037906299946394236
0.0011332034186061384 -0.0014221436619958098 -0.004228364188263079
8.701137724259129E-4 -0.0018160122572558014 -0.004099242788277995
0.004670449659591951 -0.004107971359167887 -0.0036072685229398137
7.250080239438907E-4 -0.0020550612544821475 -0.004107808782887257
6.374259277685785E-4 -0.0021555841624208132 -0.004092998861432388
6.92376893248553E-4 -0.0024048336699570767 -0.004273502656662163
0.0016823067832129716 -2.1432012902421503E-4 -0.0036947081125118793
0.0030243065320818318 -0.002056061624969302 -0.0020800923404919644
0.0031683971133914667 -0.0019387683966204574 -0.0023897910189299605
0.0034830738017475704 -0.0025221536474584077 -0.002399775463824604
0.004254147344583074 -0.0031590330425700607 -0.0029851301792856587
0.0010567430786325217 -0.002933029736056682 -0.004440064594596984
0.0026912442031700504 -2.5556715182203016E-4 -0.0035699282218429784
0.0027358899264895787 -5.985684758941153E-4 -0.0028662009022127474
0.0013514878888898686 -0.0010433233562321075 -0.00422043323778683
0.0010278637097770188 -0.001658975929741644 -0.004259827948733133
0.004895141156258706 -0.004505017532370684 -0.003910239413654858
0.004311882448124791 -0.004669703212669002 -0.004389911235895502
0.0025406272584890363 -6.7590769120880486E-6 -0.003954493613880624
0.0026178324281871906 -8.593506322854943E-5 -0.0038759592837788242
0.002639451046710692 -1.2076558998155256E-4 -0.0037185765896136803