# vtk DataFile Version 3.0
vtk output
ASCII
DATASET POLYDATA
POINTS 1139 float
-22.8710990376842 2.3155820775095086 4.489905540271006
-22.4548034709214 2.6519401759225 4.359009595096122
-23.163033253645324 3.279217426723558 4.543276589838734
-22.383346853269682 3.324918124831874 4.257572151746388
-22.37582395503635 4.3572585679217575 4.368490767398959
-21.263707465083282 5.354872425059365 4.53996314931417
-23.394167519987228 2.0937832704488604 4.909907159538699
-20.627076370252116 6.978429643264459 5.325505233305497
-24.672840377288942 2.956101381380257 5.759273997103531
-21.15609977891468 6.310676398124712 4.63492311475757
-23.614534520669988 5.424353085518524 5.042990795044823
-22.31037873691911 5.656698639115235 4.452482805746462
-22.609189215055917 6.5323150185725405 4.675496816583332
-21.246288754978536 -0.792392089445689 6.467726394675726
-22.228601315975702 1.426173916244571 4.946673597841632
-21.493549724713844 0.5484562227430541 5.35087113309293
-20.872878030427817 1.2701670932735243 5.218433259717254
-21.378864100392033 3.1348912496934425 4.551305551666738
-19.869029223639245 2.548028196651366 5.0923101541312334
-19.43144888245692 4.463642637662452 5.177495532849913
-21.67842192000581 6.471898745044874 4.608272936792119
-23.21703574561143 7.127134864060629 5.071184985461011
-22.24939993249976 7.70343220036868 5.171996522229179
-24.150967484204656 7.401037656926118 5.787307009836438
-23.991462842803873 8.309578506100848 5.934108799586212
-23.457120846947827 8.190607924562444 5.633628373584919
-22.822230360251734 8.954200610153388 6.0192282701686155
-23.70794220113254 -0.8204468946357115 6.600791067405313
-23.695070201621693 0.7192787625649916 5.800566535427214
-25.47472164459923 0.8272508808442212 6.760592103560174
-18.831843020634224 2.949943683823766 5.39872343502407
-18.4649701902286 3.7872814865780122 5.409154704310631
-21.53357929725717 9.034825588691039 6.182365976791508
-23.364137169940573 -2.135693709135904 7.478614366637794
-18.860159218360035 1.2230888379387355 6.047375745835933
-25.23577080140914 -1.2502097984044318 7.686256482363437
-24.61662719981648 -0.20397385313534377 6.520522010005634
-27.38080512491889 0.4160189617813502 8.53797807305545
-17.694829000707113 3.0038405837848594 6.166464942876329
-26.68175755053776 2.643834962691675 7.363505478291831
-18.587912966202882 4.2191753621469354 5.310789538693578
-18.03539630248993 4.490613191608448 5.878152423087721
-26.16714818990501 5.829793922190986 7.212347256473637
-24.353063357249248 8.990488337880599 6.921080901454815
-19.930981687182847 9.124088130814334 7.016758130906635
-23.731972481175543 10.941122386159913 8.007274171545244
-22.671362551019854 10.187439645146027 7.070729654680892
-29.20954503028985 3.284322684056496 9.392263339089471
-16.243033633856076 4.702197624708539 7.508830655691562
-18.197715927546216 6.838172134017957 6.718225131822013
-25.160624464799632 10.999004526111163 9.034264090939676
-21.26298816482472 10.454038701192767 7.521224208318512
-21.93722103944863 -3.5798642274167674 8.390646033040117
-16.616813892497202 -0.28621694190875097 7.480596965401995
-16.362921903840206 -0.6980015437345556 7.692482922144574
-16.05061448276916 1.1377719801234452 7.774084365671238
-31.189920343159244 3.421169287782649 10.650396391622337
-29.104957375634594 6.667763972989449 9.666065838319613
-18.547922019707993 9.296743947070322 7.930651966565733
-22.59843923863446 11.703320544598622 8.726540752439949
-24.004470828633856 11.828398234234138 8.990511312996487
-18.375979102927634 -4.585724643190344 9.232009225243049
-17.53854307789907 -0.997553426760354 7.460384120821645
-15.32617047316336 3.549823408498781 8.33842973801575
-31.65703388173978 3.018518652512334 10.966996355953098
-15.920011047561848 5.794672191407612 7.742721576113278
-30.985597789769013 5.188792573116542 10.87538972287578
-16.347915572630704 6.604315608094616 7.820353896221069
-29.758735538297238 7.495750138121684 10.325446471197656
-26.97632125348954 8.864095708950103 9.045503009510968
-22.13181437563582 -6.0459032981844905 10.474206882695553
-24.357943062013874 -3.7027008364499654 9.149889889569675
-27.11659493196129 -2.529149701169868 9.993761747982807
-31.196882836784198 2.3565428619409716 10.918064694573648
-15.741011679289429 7.428472390057288 9.122687887748647
-17.1846530360625 8.499761357716874 8.36136274577412
-30.305027518038685 7.083898632175741 10.714578737381169
-24.623980770146538 12.763460203957584 10.68081612425135
-25.958218696539163 -5.954503115857016 11.834828357833928
-29.888773185206063 -0.13586147923545866 10.98263264090043
-32.05138370858784 3.4004058842339435 11.663147913001184
-18.046275239639485 9.971480479758638 8.907333898067828
-29.452193275184648 8.504478559116697 10.877452722311618
-19.970580472655172 11.309320165287286 9.36451641538569
-27.216012691336825 11.415033330954481 11.276090498194819
-26.0653983085487 12.69581720672632 11.353649899404118
-22.315514370345383 12.878099400404304 10.353615755208168
-19.418041076506082 -8.090956730233476 11.467550747477942
-15.387167283803844 -2.2319978689332776 8.694889842545576
-13.492316574376556 -3.1593734170184327 9.552892165348696
-32.17861819603113 1.4146971646798523 12.537851483264982
-15.520940951811449 5.927996537455646 8.332722074357665
-15.21103735809251 8.002302118104916 10.345542242758523
-16.281973620820338 -8.356591073963076 11.700041075198607
-12.63922218572528 -3.4199814928796464 9.863249477574797
-12.08891922203549 -2.8914803840398657 9.990515929896473
-29.284498150899587 -3.964307337506748 12.628401637758422
-13.129928922256363 -5.472205513250489 10.475313855503174
-11.784313797331222 -3.991447566951464 10.228118253888855
-10.80733457913984 -3.9870255257323595 10.675705234293373
-28.197891011495102 -6.059885198238914 13.065516626763673
-11.17349310226521 -2.730873371281007 10.644055984385373
-31.877504101398834 -1.4648027559437773 13.721938158765392
-33.52903967503419 1.1394603838675939 14.590987214658844
-31.47451611376796 7.246598201949219 12.271769782050544
-16.987202327859418 10.094401574568295 10.49865305419982
-26.289523513954983 13.171157575987031 12.316875582699286
-21.505906081929595 13.517641145130574 11.76973057194562
-24.877371497115462 14.109089409207375 13.13980944797568
-22.962236424687653 14.36856240408751 13.110397635474097
-23.207594041662624 13.809194603687823 11.734169671261386
-11.183249299196236 -5.584706027788314 10.726633987732248
-11.381403468930225 -4.891887759867217 10.486557091349038
-10.383318397251779 -5.833159395267729 11.206204971286882
-26.216118148365997 -7.885482908198275 13.563896215312152
-27.290966396356133 -6.899241814686573 13.113743126505755
-10.476515627628642 -4.93569303499345 10.970042660336302
-10.574976963927726 -3.456338798513119 10.854969008839985
-13.080351089010083 -1.0966903055034698 9.736679654286718
-32.406080370073234 5.114467928264934 12.451927926441433
-30.462008634029957 10.001412975427716 13.419185877010662
-18.04008002566909 -9.261424815554724 11.98322172012493
-11.063363078803057 -7.351611908651159 12.066844060810315
-11.056465114511454 -6.270537254620312 11.151850223412485
-10.062570984700658 -6.5429049906211745 11.948915911911337
-9.71060490095788 -5.3527294040890645 11.870308521462821
-29.519266709674913 -5.701699681103865 13.852460747571937
-10.03382913738746 -3.4661056962978893 11.592348569130802
-33.106868412685486 6.195954137035592 13.893016760651388
-28.252739114458414 12.697143989287907 14.06955380783539
-26.55750149978518 13.806115199884182 13.712840037201735
-21.604433652242022 14.253381752001848 13.901059101349855
-19.158979055197662 -9.7840338008357 12.636141381943547
-9.822594126535975 -7.470373203393952 12.916425867426554
-9.073131682594223 -6.342300772185637 13.226944436079078
-8.941238702526963 -4.522740204639087 12.973427908256483
-13.936383697195387 4.810604591484909 10.167060569967362
-33.461980458336605 3.48168204136966 13.918819670705908
-14.649270043999843 9.174413437219947 12.08609329707534
-18.46479706645408 -11.096000941884109 14.054325101140407
-17.406956044004588 -10.060259319297154 12.726994538919966
-15.293498738737078 -10.839471443418663 13.994461353068159
-12.628200914430835 -8.970558919885448 13.057431687498045
-10.358794772589322 -8.581621349425241 13.633458064103495
-28.541858525623873 -7.138469104474813 14.384651136886639
-31.676640348300666 -5.176169263767368 15.675757506761919
-8.93581672306872 -2.5255320062889037 13.367218876095626
-34.08390676120961 2.4591238806171862 14.918117661031463
-32.42177959319229 8.171428481164204 14.106065404441773
-16.693324307245426 -12.577264309910221 15.792163744785327
-9.20852108425333 -7.9052542635079055 14.298586421088055
-10.465527228958312 0.20169576382703822 12.262177753139905
-34.64400293626322 2.812263666909356 16.44202369631591
-34.08291338238373 5.3956844389387335 15.392778477542242
-33.60111246950486 7.509933569471902 15.488703862553505
-19.446345949884805 12.861058956239036 12.671885137310912
-17.581921076352007 -13.578042560492506 16.98553617443734
-19.949270107453255 -12.696870018574304 16.33260301096824
-12.362942757198143 -11.066190153650261 15.169161119644796
-22.580558953829602 -9.463856266624816 13.66265918672392
-24.784309155537954 -10.548873420190699 15.82218067260412
-9.608962290267959 -8.918151330352893 14.879770421963656
-31.929397850348415 -6.676123514958209 16.642528466312005
-8.285399378869593 -5.218649727037862 14.27815970746411
-8.305069283476552 -3.891083924690221 14.090772323814372
-33.78225310763112 -1.6472211081405943 16.453263158958478
-32.56253597718062 9.439884876290359 15.607155369951178
-30.933511146140656 11.495215460283353 15.98680031903692
-29.134770437065896 13.196690996747257 16.512215890666656
-23.877835829722052 14.696626986927702 15.318016791813083
-18.637726468338645 -13.799168231235257 17.406121921821928
-15.649508311937824 -13.688571072216593 17.756680121177933
-10.602361054658404 -9.944465818563913 15.290918723400226
-8.84744070847033 -8.57510575940612 16.705585261439
[...]
POINT_DATA 1139
FIELD PCA 16
mode_1 3 1139 float
0.004107195933376388 -0.0021727569984996207 -0.004115956813762489
0.004012955093694634 -0.0021930543103403518 -0.0041198183146448466
0.0040450497526858245 -0.0023113504484393154 -0.004277977306245219
0.003934526627076614 -0.0022762604084176205 -0.004200109731818647
0.003812551607654473 -0.0024053541536153103 -0.004364364286007774
0.0035335079403915485 -0.002469313705215107 -0.004433345770356135
0.004181015852918953 -0.00217098894345185 -0.004160996155045854
0.003283984465061246 -0.002625621764332347 -0.004666670761077551
0.00422978419963448 -0.002341058674914617 -0.004437508435766265
0.00341909484752946 -0.002583976860607211 -0.004572520708709599
0.0038603734958408157 -0.002593911362066167 -0.004674907524561175
0.003654995393756429 -0.0025656968511729482 -0.004565983671943884
0.0036029944954714776 -0.0026865266807769212 -0.004745735446978584
0.00395001519726728 -0.0016423701307690742 -0.003902115869522832
0.004053689718311202 -0.002014191284018531 -0.004009390803340484
0.003984776791482684 -0.0018485831971355735 -0.0039047356667410832
0.003828978619949422 -0.0019082018895097276 -0.003929343972972872
0.00377808998387285 -0.002190063278174316 -0.004126162617912969
0.003564151934639906 -0.002019045229854734 -0.003986890985301468
0.003327873805731369 -0.0022444738972273058 -0.004195777631510397
0.003477116910488702 -0.0026319015135504863 -0.00464593912270367
0.003629213889754415 -0.0027808736417908 -0.004916551339637342
0.003441624894708027 -0.0027996119724416875 -0.004920779944858679
0.00373572239245928 -0.002843490158553091 -0.005068599161547053
0.003634044365826727 -0.0029383199119797 -0.005206961665716969
0.0035668670099545602 -0.002906122270611594 -0.005129261114503212
0.003423825667791368 -0.0029565641212465858 -0.005198418937908247
0.0043489813502595905 -0.0018046335108484058 -0.003995879165909457
0.004285341406308072 -0.002006356050636704 -0.004092963902488944
0.004457595784232484 -0.0021224672643788307 -0.0042875903696155985
0.0033474994743839196 -0.002009922567342413 -0.003985631969811654
0.0032209618129902065 -0.002101004603392551 -0.004048998471924172
0.003249018245251697 -0.002902452540288172 -0.005092296535450209
0.004296359927264656 -0.0015964144561930542 -0.003965169473101424
0.0034497663706444573 -0.0017753851285629359 -0.003897406385951492
0.004487454494930512 -0.0018381100324685227 -0.004138055080649119
0.004449750387403829 -0.0019451867017611418 -0.00409219477452349
0.0045770018993460315 -0.0021710741738263702 -0.004487612236917356
0.0031286267232202934 -0.0019501544892605589 -0.004011699467962433
0.00443157274922262 -0.0024015594305287252 -0.004635631554407019
0.0032097256719567703 -0.002165990580924416 -0.004096527559732228
0.0030875147291711128 -0.002167396751460276 -0.004157264043944828
0.004131612848223458 -0.0027357773151926164 -0.005033491013167401
0.003652368326032527 -0.003009639892134957 -0.005358213290034923
0.0030405689640221356 -0.0028254655371516236 -0.004988531561365657
0.0034630288875357415 -0.0031753018582562115 -0.005620276899836043
0.003339884942065649 -0.003068271239760739 -0.005395958198770631
0.004590176514425319 -0.002594727631636306 -0.0049793774813378985
0.0027496201636731826 -0.0020993613987508805 -0.004268252546178085
0.002933526478552957 -0.0024683729976201813 -0.004541252266976419
0.003689448398917161 -0.003220291404743563 -0.005746291070895521
0.0031463702950326913 -0.0030322579653264503 -0.005313607649840977
0.004067592195998484 -0.0012861600199540481 -0.003945750061017899
0.0030953321238090256 -0.0014225961306051315 -0.003812597449724746
0.0030542355827757146 -0.0013482418028989561 -0.0038069943500700786
0.00290574926560186 -0.0015990702568985998 -0.003973788552648755
0.004771614051053353 -0.002715168820819146 -0.005140429467336438
0.004422311916743993 -0.0029311212429022084 -0.005442050716793027
0.0028437362746303067 -0.002773897493392286 -0.004939410701300067
0.003293428043743146 -0.003202916317927299 -0.005632561926950623
0.0034824715147670046 -0.003263219277648815 -0.005780186908180393
0.0034775982332069886 -8.963681780661302E-4 -0.003929778545827097
0.0032805382317101493 -0.0013761804281994128 -0.0038254457178756008
0.0026621790695990125 -0.0019047149439318397 -0.00422044032868644
0.00482403959595523 -0.0027015331565477204 -0.0051184337987301865
0.0026213472124448785 -0.002224756152211323 -0.004365307384340516
0.004684715471163466 -0.002870666308345939 -0.005364366945055543
0.002647760909186567 -0.0023472057473402945 -0.004484834575137916
0.004465544015881069 -0.0030328776933238014 -0.005623103024098709
0.004047265163449516 -0.0030707526265694447 -0.005575596081827682
0.004015988123958557 -9.22236637902831E-4 -0.004111597785569336
0.004347505561401539 -0.0014356327569906896 -0.004083106299957673
0.004545028661306266 -0.0017806198741246227 -0.004324136570919798
0.004780872098211049 -0.002605019208319668 -0.005013360303706521
0.0025299811628904712 -0.002424773802397064 -0.004669302862644844
0.0026910787721622833 -0.0026181650269317455 -0.004780271385596257
0.004543159062642271 -0.0030174315248970933 -0.005594195945891281
0.003596150820575774 -0.003362692152087856 -0.00594071144358585
0.004345936818335736 -0.0012263523651953718 -0.004294414308310777
0.004678889233252221 -0.002248023880663664 -0.004691642947735697
0.004819035680273912 -0.0027537272914576268 -0.00518546460699646
0.002756200808536565 -0.002828683634550649 -0.0050393658283672755
0.004390099421249732 -0.0031184894376168554 -0.0057130341591617485
0.0029914930921284603 -0.003056852405831885 -0.005357628996685486
0.004009351576492448 -0.00331450100376508 -0.005932992654977952
0.0038127664358755683 -0.0033948597263274 -0.006045191596736135
0.003271827001167411 -0.0033005685595203197 -0.005768786285546082
0.003672684418913912 -4.023425763694692E-4 -0.004168096141965437
0.0028778021591457175 -0.0010740549076385492 -0.0038431395498658293
0.0025113629906767542 -8.364737145293724E-4 -0.0038436381188736496
0.004795098675828674 -0.0025528913546995846 -0.004965681219888799
0.0025542162623326133 -0.002227460057652658 -0.004435851801904436
0.0024643979407208594 -0.002480002309701898 -0.0048144915734583274
0.0032162234735816034 -1.790929633305654E-4 -0.004182569771187573
0.002329276643145952 -7.547972152741408E-4 -0.00383741264225274
0.002188532277271181 -8.167820948035653E-4 -0.003863817148861591
0.004536780970951571 -0.0017499388309937006 -0.004460289834411258
0.002492921199439726 -4.8146749909589717E-4 -0.003908050408630911
0.0021464761566619833 -6.365419851180606E-4 -0.0038331509421806703
0.0019195947661095768 -6.189358279911312E-4 -0.00388888676171335
0.0044431796297335945 -0.0014035243056019654 -0.004367675202233915
0.001983182895239418 -8.372874943284916E-4 -0.003980623604053097
0.0046537382020703875 -0.0022159996220473483 -0.004730255568402753
0.004783448256387244 -0.0025908922582144576 -0.00498180819162659
0.004666806115466379 -0.0030813290274559037 -0.005641649987624328
0.0026681881416681995 -0.0028045932915799743 -0.005075973617397238
0.0038718093256010925 -0.003445936299277426 -0.006084474772616734
0.0032202333623498804 -0.0033428881672487322 -0.005765192325866118
0.003707602205490111 -0.0035003030158320338 -0.006059216653518523
0.0034543435197228714 -0.00347575363965934 -0.005952040566331607
0.0034234295427217746 -0.003420005073484286 -0.005946214175728202
0.0020547247404844077 -3.8023068618610057E-4 -0.0038421467432713198
0.002075326811904862 -4.862912700584391E-4 -0.003822925873634803
0.001886706079999527 -3.374115206344389E-4 -0.003915933489070472
0.004235377140385112 -9.658805994286407E-4 -0.004436352879213566
0.004374147160574657 -0.0012119360586501694 -0.00435535842751599
0.0018727524663745504 -4.7199523767006094E-4 -0.0038991603162066087
0.001854724704386011 -7.072519535790976E-4 -0.0039538910229471435
0.002362824847637117 -0.0011442614976140048 -0.004002114337267829
0.004800426546081427 -0.0029292388013753114 -0.005411640369611486
0.0045004506223055565 -0.0032932291848828915 -0.005874050143031256
0.003534101261601662 -1.1543853943768628E-4 -0.004209946338868683
0.0021467379234246233 -1.58837167530241E-4 -0.004127262243943618
0.0020651282714239257 -2.893045899913751E-4 -0.003921990696584025
0.0018673036019737806 -2.6120390807051424E-4 -0.004072763668178405
0.0017331945843087027 -4.454639371376002E-4 -0.0040858117102246325
0.004449908869945433 -0.001555844213750516 -0.004442372882896271
0.0017541043226807888 -7.408451341193988E-4 -0.004120052759978656
0.004834113810916569 -0.0030554421418092803 -0.005534340513172698
0.0042034030028541974 -0.0034665878826361483 -0.006047716047562323
0.003955637145441655 -0.0035158892071301133 -0.006118402067224118
0.0033390687815317214 -0.0034417059839855447 -0.005811052629163145
0.0036601657750786392 -9.759440913764263E-5 -0.004347207317487526
0.0018960399449424272 -1.616685057280503E-4 -0.004286509903602976
0.0016804054244236673 -3.6959829680010224E-4 -0.004374793478373197
0.0015679364269893911 -6.554238422961865E-4 -0.0043790573068018404
0.002377189811073672 -0.0020372874553090986 -0.004533121218453721
0.00485222109197088 -0.0028229054417084625 -0.005220202970359438
0.002434386706385452 -0.0026260431503818075 -0.005031079718321774
0.0035563313936686288 1.7364554994075856E-4 -0.00469022398806626
0.0034518098835264717 5.640263006377302E-5 -0.0043691105431251645
0.0031476393389755926 2.7561850185600715E-4 -0.004676385449307925
0.0025858905022131304 3.563994226887059E-5 -0.004402113604740734
0.002110239758732177 -1.7484568205089026E-5 -0.004464607310450429
0.004317500368793933 -0.001273965313599638 -0.004482503151050015
0.004379892003548592 -0.001778110553610971 -0.004599083429362493
0.0015513478281083616 -0.0010057756366456585 -0.004565266250358677
0.004844635817494219 -0.0027555887069797198 -0.005104169134687611
0.004754850426014905 -0.003201882824846656 -0.00573408975631918
0.003382602511105431 5.421144792324197E-4 -0.005172672476253369
0.0018473068140309082 -1.724079601898901E-4 -0.004602558111135096
0.001836644894645044 -0.0013612821974761469 -0.004506382249034469
0.004807924513616135 -0.0027993446094508124 -0.005109818290133004
0.004882088487417578 -0.0030225459467211127 -0.00539995933131309
0.0048667690883193145 -0.003189948788478737 -0.005622248588269433
0.0030333618485254145 -0.0032223593057334556 -0.005533318939161954
0.003495434009556163 7.019761548080562E-4 -0.005518775793863495
0.003630434207453239 3.726692966385408E-4 -0.005250959446379046
0.0027102804192592833 3.6191538926244284E-4 -0.004908528074736029
0.003914780443176233 -4.0368031713988034E-4 -0.004552869764118589
0.0038952175023326584 -4.1358566814247196E-4 -0.004851967229243204
0.002025794858490989 -2.746742394308259E-5 -0.004741314493176922
0.004217859542408573 -0.0016393031921413345 -0.004613734945000481
0.0015019686128907766 -6.399941426174476E-4 -0.004649601462228845
0.0014539017611993217 -8.449237417409422E-4 -0.004656759312990039
0.0045736940812081146 -0.0022971569782246674 -0.004800364467263946
0.0047684486513856015 -0.003318952636858525 -0.005785755101057635
0.004589017526104897 -0.0034468907258259508 -0.005905599552041281
0.004396258316088588 -0.0035528291388173695 -0.005970199962282568
0.0036953749046649163 -0.0035573436702750834 -0.00594458627388347
0.0035603131540663134 6.773815558520043E-4 -0.005604468686513035
0.0033406493339868757 7.833211365393376E-4 -0.00572662016738161
0.0023194287581854312 1.436142332827082E-4 -0.004870886979914756
0.0019521472005008683 -2.1761118931554652E-4 -0.005150464641075603
0.001644908891510126 -4.397532022199897E-4 -0.004789080193535768
0.001443051111478739 -8.893279380778519E-4 -0.004884322730543047
0.004413540217514086 -0.00202674554576105 -0.004691760760926685
0.00216669936191158 -0.0024561753571999533 -0.005079137159914602
0.0023877559150988436 -0.002858843224486286 -0.005339303087871676
0.002764890249937117 -0.0030708449504243036 -0.005382930030377956
0.004053191058978912 -0.0035708524171006385 -0.006037940708801142
0.004021040753767985 -0.003623303899586768 -0.005944962045291138
0.0030326178089601615 5.793311565719096E-4 -0.005297563704658367
0.0037840592699239293 -1.0100727538206712E-4 -0.005052575519196728
0.0015090067602031947 -7.421795929295006E-4 -0.004945751629393793
0.004270202612566079 -0.0017345297415132617 -0.004572777234491937
0.00424041379172209 -0.0017207372909964587 -0.004573132919492595
0.0014451946894263176 -0.0010908379759264944 -0.004902905057712846
0.0016347405441145433 -0.001683255130300695 -0.004946968505268065
0.004876387666134171 -0.0032852655103601893 -0.005655755712165934
0.002023834014347096 -0.002624989271243826 -0.0053816035266477345
0.0034940376466028374 7.93628190385164E-4 -0.005859926067753666
0.0035755195794153227 5.634111866882482E-4 -0.0057750075496866
0.0036261789042232677 4.495944324994544E-4 -0.005504482094344452
0.003779642318229097 -5.025179043830667E-4 -0.0051924717138071615
0.004056527005328538 -7.803838603587499E-4 -0.004683073597942577
0.0016450022245406352 -6.376344094849565E-4 -0.005138973588105489
0.004240522039092279 -0.0017435496638423817 -0.004615742824281188
0.0014446410942701368 -0.0012576260526729515 -0.005086822112864292
0.004266760395945016 -0.001958874707567391 -0.004747665587013458
0.0015109640244805743 -0.0014041483541547093 -0.004957162469104457
0.004602174174675773 -0.0025917722267967333 -0.004869620378229042
0.004889427151600004 -0.003161347359167721 -0.005417657881599931
0.0034122724625521906 -0.003497350655583957 -0.005678730843549466
0.003432873713098792 8.605945304886287E-4 -0.006078260217622454
0.002675958976432141 4.578809552790759E-4 -0.005264857371423438
0.0025289210918964457 3.6216815990305727E-4 -0.0051408484710106
0.0014570525497436956 -0.0013646646078765068 -0.0051738453410680625
0.0017898702393436688 -0.0021128614185610783 -0.005144872155841561
0.0017837861701088724 -0.002529451586823141 -0.005527595155828657
0.004676016223223803 -0.003547355165407147 -0.005796803093062195
0.0043699859976528855 -0.0036433100914205156 -0.005801481641969509
0.003357106288177649 8.282213740205406E-4 -0.006265376945020072
0.0028282413338947647 5.217041807470964E-4 -0.005584301251055772
0.0036553566151047937 2.200289550996452E-4 -0.005469925147161732
0.002542547288958505 3.9102815015232354E-4 -0.005282582445695984
0.002136443708587696 -2.016544314503505E-4 -0.005629980947752333
0.002011432617326841 -4.12224748232222E-4 -0.005675965931998349
0.004101216911655624 -0.0012432058504515276 -0.004731817621735453
0.0038727829096580615 -0.001206924460384743 -0.004951822814231025
0.0038977332014022096 -0.001473419033498486 -0.004924182090158086
0.004086190753106578 -0.001550385311329684 -0.004744437413271748
0.004823809139805588 -0.003004997867439551 -0.005087053172777259
0.0016072357576147331 -0.002029909650909791 -0.005252217553403631
0.0015572259262873558 -0.001853855369289739 -0.0052169809669343785
0.0017112442940493487 -0.0025692914361746303 -0.005657463156142739
0.001765826003597412 -0.002666233735093954 -0.005667557601350174
0.004844161999425484 -0.003404416393829799 -0.005653504751760772
0.004867104225289293 -0.003539713371715275 -0.0056478024661793785
0.0024653335929535696 1.896701724739337E-4 -0.005501183020659787
0.0021148404707685793 -3.166109160487373E-4 -0.005785580201056458
0.0015481236021993724 -0.001173257373675184 -0.005329174684490647
0.0015887377195189995 -0.002105855780944579 -0.005394935829022228
0.0015715061931788228 -0.002185843399579445 -0.005571472568832911
0.004898784232429349 -0.003297704750738965 -0.005258442076396822
0.0018055770150748876 -0.0027284771164219025 -0.005680635100573578
0.0022937328515945108 -0.002996543397737601 -0.0055635962719948005
0.00490278150386712 -0.003563054685678278 -0.005589373700138689
0.0048085624902890105 -0.00359693002544515 -0.00555042789141032
0.003948944192040499 -0.003640262398532122 -0.005814019441717737
0.0034515942805378444 8.839323004842651E-4 -0.006580363797579032
0.003109615293685211 6.807742888498301E-4 -0.00588296324011706
0.0036203759994292814 3.731416801326109E-5 -0.005632943822971772
0.0017866567888271065 -0.001587095303718973 -0.005963012197929344
0.0015023561772069835 -0.001618719535856752 -0.005325964127110627
0.0015423956460386458 -0.0019851209110631433 -0.005501336424670564
0.0016826485516661304 -0.002430633274566399 -0.0056612421922148555
0.0017394015133519367 -0.0026675585440920926 -0.005748139217623274
0.0017922774692016622 -0.0027595740642532215 -0.0057749512910917
0.0018155895592396653 -0.0027595721223805515 -0.005726419082601973
0.0019317774305963938 -0.0027834947699083615 -0.005630399511943487
0.004913552575856667 -0.0035045175892312835 -0.005483134055523662
0.0021884876802743644 -0.0030381127244626612 -0.005691731633684116
0.0034588942232234524 8.963797740105175E-4 -0.006690298872338348
0.0036095939971344396 -1.749955892297611E-4 -0.005645599587259082
0.0017914804324346036 -7.080234092127429E-4 -0.005520407905487818
0.0016104065893051678 -0.0021927277583830966 -0.0056948767378004975
0.0017340072689075246 -0.0026563109172226766 -0.005805764868411869
0.0017655381547750694 -0.002724717756085614 -0.005814849666977277
0.0018509626092110504 -0.0028177883881130134 -0.005777857772631701
0.0022586741892992044 -0.003136058190104856 -0.0057521816962553
0.0028474037519122396 -0.003328267672851501 -0.005587079621934673
0.0028793786484436045 3.9420857609416836E-4 -0.006008393083125075
0.0035783180922243567 3.173160636635629E-4 -0.005822180572080312
0.00199202585978143 -7.742069395285756E-4 -0.005900444781743184
0.0037814719408097754 -0.001300485939147819 -0.005010102098609528
0.001812213525539982 -0.0027747671883414215 -0.005856153849508455
0.001870584847222561 -0.0028369643016711425 -0.005821878698517645
0.002029961149390557 -0.002958733859180375 -0.005764973339632942
0.0034775252232512248 8.0150984977517E-4 -0.006701783372316706
0.003403483025996265 7.592501740121772E-4 -0.006645380329466851
0.0016471851987283552 -0.0019040211699049318 -0.005757920363114597
0.001734768278404106 -0.0026226096875926917 -0.005822000272959513
0.0025610723123843633 -0.0033230719166092125 -0.005722639617524715
0.0034956140851051254 7.320621080434648E-4 -0.006381697264077815
0.0035351277323402257 3.904249312326682E-4 -0.006170729619917123
0.0031920683943759583 5.649641109370681E-4 -0.006373725159357456
0.0026773444847794582 -1.4006908540946814E-5 -0.0061294185541279494
0.003576332016649537 -4.8225844813590843E-4 -0.005734931819457504
0.001844672729230513 -0.0011555231046991566 -0.005893306775391747
0.0018557067058420534 -0.0019666968169821616 -0.006116036990452165
0.0017746884596470116 -0.0024162289349908828 -0.005925656439100514
0.004802385447855104 -0.003079853912969265 -0.004801163108438101
0.001803222634380889 -0.0026586469225128423 -0.005901456630482335
0.0018127343455174574 -0.0027493924422527486 -0.005886407327103432
0.0019801218654951886 -0.002943837727485975 -0.005919510246992696
0.002296640929572072 -4.476994811390789E-4 -0.006013281499930592
0.0037664885551754444 -0.0013255219462206696 -0.005026836206203599
0.003740948183593988 -0.0012121489667369664 -0.0051651118792511415
0.0039869597803514276 -0.0017478870997640586 -0.004906115307531223
0.004285225372290329 -0.0023025303102788947 -0.0047811607533740025
0.002345108331639337 -0.003233539216519841 -0.005809143513435741
0.003526611478900812 3.938106503010352E-4 -0.0065277198775053275
0.0035548666234080394 5.1132332511472164E-5 -0.005927540340461025
0.0019865494823456684 -0.0014898739479743228 -0.006216217733317624
0.0018468809792866062 -0.0022322887779934937 -0.006085044086519495
0.00495603507113117 -0.003377317893759119 -0.0047837079008462725
0.00484969967494726 -0.0036331447741632305 -0.005351668519571144
0.00346589552252483 5.355656755762282E-4 -0.006826648832537231
0.0035190518831812474 5.18228511358893E-4 -0.006781589154892762
0.003528010064782218 5.131525321210613E-4 -0.006677556029448357
0.0038966101977502303 -0.0017631267024826606 -0.00500071133946283
0.004167187403778288 -0.002228065244377093 -0.004785390595704742