# vtk DataFile Version 3.0
vtk output
ASCII
DATASET POLYDATA
POINTS 1139 float
-23.87521052134619 2.864494247042867 5.1520534839044
-23.444178860859292 3.1834713045517478 5.039472365913541
-24.072558740297108 3.8523245814486695 5.198109056262751
-23.320383439925024 3.860241091759247 4.948386969913677
-23.222246547703026 4.8996088058686995 5.06360756142868
-22.04549688543081 5.839722969648465 5.265578291530034
-24.390265689221508 2.6632288855159882 5.534622327227675
-21.241854729555502 7.420982907035842 6.040614293810222
-25.517769362165115 3.592070549363093 6.294435362210363
-21.85998190621383 6.793645200508503 5.373725929921529
-24.300816901661513 6.032498189664704 5.673997875662982
-23.049637196211446 6.20476056449209 5.162310790751416
-23.256744287403293 7.09862892662506 5.379810329403989
-22.518480759035512 -0.36360568351291966 7.070715551989118
-23.313160630928845 1.9286057308176008 5.600437520955691
-22.66017377083213 1.0020327371899276 6.000867653351245
-21.98126836444439 1.6996100050556944 5.883268494216405
-22.34021626444853 3.6101954844081323 5.248389719531278
-20.87519140737777 2.9343412663941413 5.779762602876445
-20.276374437156303 4.833182987029196 5.881507279733994
-22.358724709013725 6.986014729780501 5.339716509613147
-23.771819893099305 7.7229708632856555 5.743740901127902
-22.77718512253113 8.24397812481501 5.877337241994148
-24.60442981418118 8.037531468153801 6.383669793727152
-24.36242098064269 8.93778762364849 6.545520325628079
-23.876675601018334 8.793463493974127 6.281818953266288
-23.171243385034202 9.514153916395868 6.676777250431351
-24.94815930953796 -0.27915573202844113 7.145121368419734
-24.790000537845497 1.282329326896897 6.372858136403085
-26.484067530468632 1.4773584686705166 7.219714680912306
-19.797745950652338 3.282567358528699 6.083494794946873
-19.362868637189504 4.102199421146254 6.102884946588077
-21.903831728054985 9.516850677359354 6.862026117562927
-24.750542441111243 -1.6299975037306935 8.005860002724415
-19.94827499599705 1.5539392517292312 6.691280392965194
-26.473889314283312 -0.6396997215305676 8.131729323459247
-25.771442635165474 0.3899480638389483 7.036640601426794
-28.31847498895891 1.1579013091530543 8.817106518892963
-18.62518115881972 3.2807598077890576 6.819982581636544
-27.423413195325647 3.37203245928237 7.718709216288352
-19.454590330083416 4.541413003765374 6.012743929625843
-18.85542114703343 4.782069992991173 6.556846305761228
-26.59995092575553 6.549385254477107 7.600746974298971
-24.58147771275683 9.62182146507351 7.456475642002795
-20.28251191018281 9.50112387215951 7.658635269590277
-23.738758176550764 11.518757309778335 8.524888587089725
-22.848656619906365 10.719799569916098 7.679359357548172
-29.673913637396613 4.14300018940109 9.480220234120319
-16.97880485318223 4.906014208090613 8.109873015809832
-18.782261338711468 7.128741508593801 7.371788368565153
-25.02846209168192 11.64339685664473 9.4035073694953
-21.436616926249542 10.89821163331334 8.126567584611944
-23.497652403399695 -3.1562133794230802 8.925451309559628
-17.77005819631026 -0.05526848677193719 8.063463789583471
-17.541663987192308 -0.4701537731304982 8.266435575512759
-17.065305204004733 1.3564311748966476 8.34338280704806
-31.460416808432566 4.3853545713858075 10.524474741224921
-29.164304191656313 7.525502235391749 9.72606964163053
-18.86376425068539 9.583393622151512 8.521848559771318
-22.536441131360412 12.20430213129573 9.221599251318294
-23.854181844300605 12.406079626440459 9.431386147299765
-20.00409382251953 -4.298821729772984 9.780950347926163
-18.778694059165694 -0.726365419829186 8.047486179711637
-16.122405941260222 3.7261687275781687 8.885079060765804
-31.93527962585998 4.0070087703867 10.79404412023959
-16.557650622011433 5.969161602825977 8.343236695180616
-31.04100208043645 6.138953515748195 10.740359450118119
-16.91584886303477 6.79452177166955 8.41686667812016
-29.649983220596532 8.38322201180846 10.299475111363149
-26.956302629588045 9.611265656847557 9.287955191419222
-24.00821404135117 -5.657054373944326 10.953426118381424
-25.908256836222705 -3.170513427876465 9.592471646229992
-28.423771719836882 -1.8349486760537614 10.266912697553714
-31.598354014471493 3.3165234202770075 10.799101001981356
-16.195370987771426 7.586148018418703 9.628083883188749
-17.570799485165157 8.71559645084447 8.920616549770592
-30.188119606290787 7.99797020175 10.627576042734
-24.25109904026996 13.352646979772222 10.94382878815058
-27.77732706802797 -5.3734064873115335 12.144875300317027
-30.712490414319017 0.7360358233542978 11.007629006870213
-32.22749233239732 4.404306246020432 11.430853869898765
-18.271682409072284 10.219912739580415 9.42585677011938
-29.22096323673789 9.368249974244467 10.835951257928233
-20.00830230929767 11.655918163054166 9.82242407616024
-26.793002161163233 12.146428447292752 11.352345470583833
-25.578673991392126 13.359143851322255 11.504068311846595
-22.06533030300252 13.338306750631295 10.709634490559338
-21.554588480015163 -7.854872884086136 11.999974218592824
-16.660318166973756 -2.0088557171794403 9.228657931424117
-14.75675194457869 -2.9579640446367974 10.037073768154109
-32.58814134918671 2.416189436290873 12.304361706810658
-16.12613153714318 6.089094418596207 8.895600605939437
-15.588219582386124 8.131447808032394 10.751973627215083
-18.34049372006592 -8.189658595591967 12.243642068416726
-13.87520804508402 -3.2210268713569805 10.320031606100788
-13.237375646502375 -2.691678930072341 10.424825297589509
-30.66724570073565 -3.157568331981817 12.709617265542253
-14.607768132369877 -5.257222743582902 10.952163086371216
-13.012274726061799 -3.779682878600775 10.656475701095193
-11.964887470133707 -3.7554775587623617 11.069553312570186
-29.959481571814553 -5.343644392067315 13.24156383829677
-12.253263346128962 -2.5174015852707887 11.043001411050584
-32.700239536119575 -0.4924024399983366 13.536825848283149
-33.81032922543537 2.2009774098308093 14.18837295871489
-31.17960661431378 8.208317703091259 12.008840778306462
-17.1694646425269 10.283800138836567 10.86327456221424
-25.688792195497886 13.836183116622086 12.356189206110123
-21.175443248248428 13.916758202051136 11.974812301748523
-24.235243950726534 14.684535855072042 13.126069708668457
-22.417360910059724 14.83481553271996 13.139977923702139
-22.758473257693876 14.302333025537724 11.932672450885475
-12.520354943844413 -5.343652179411221 11.151753535633613
-12.663325106183704 -4.662961391420932 10.908308261378076
-11.69145091281235 -5.5711249656893145 11.610811083401176
-28.325064412852264 -7.325983298477285 13.832532565476239
-29.22154159025031 -6.2535494392171405 13.348632458297496
-11.700244647827596 -4.684543998227621 11.36430311873042
-11.670757502207953 -3.223703317157843 11.235774005515395
-14.140261273796778 -0.905227849277391 10.197323584733388
-32.30144966437879 6.129149220485049 12.135740329695412
-29.856019491642297 10.890600082448527 13.122774648705372
-20.31508752202093 -9.102831116548774 12.548194003930595
-12.626375750704021 -7.115922614646226 12.50913874236577
-12.466243754390002 -6.023239184925657 11.583635060382024
-11.44003959400735 -6.270127971397061 12.352408738878742
-10.934780111497064 -5.072532617415107 12.244613981251417
-31.1514234219063 -4.894740528745729 13.919596356561593
-11.108641606513892 -3.215901903748586 11.95587428729353
-32.74408280529371 7.231455350343173 13.438598761724764
-27.476612749916946 13.454933798112764 13.821880325981681
-25.803624477420765 14.47131775271214 13.584436129120837
-21.13382471809013 14.642894961379188 13.825863540400775
-21.560248947534266 -9.61386017811655 13.172183819336835
-11.312786793501212 -7.200381396868424 13.32124948853902
-10.383514682053518 -6.042261061166719 13.587548218466816
-10.052029497807561 -4.220841088094988 13.305969054486411
-14.571591136544265 4.944277520724294 10.610913445704064
-33.435504886268305 4.54183042113385 13.490454364047462
-14.921359959382068 9.263671694420436 12.33755876675258
-21.091330042437765 -11.003034893025623 14.56303909147896
-19.795003741708374 -9.94354736406406 13.284655790021214
-17.722100212972467 -10.779097911624131 14.517847842315081
-14.560284104346014 -8.81167980676893 13.542081294707076
-12.056166693653326 -8.356170909887128 14.061434767642801
-30.441312692686306 -6.416258584518755 14.503970689425229
-33.058899955291835 -4.224874817834658 15.525410659337814
-9.889727859919125 -2.2545403923339338 13.679630241124032
-34.11292214022038 3.5461044582679313 14.427086840219472
-31.849962119586674 9.163045081059648 13.656086703343208
-19.56803430033654 -12.62693903370965 16.28033961117399
-10.741817903885146 -7.639422184692391 14.676908709121784
-11.306498476444672 0.3867218788827799 12.61693880268902
-34.521417686716674 3.905136860471838 15.837376951087986
-33.682324566042766 6.467565895964486 14.807264830953113
-32.951602040702 8.549799242993116 14.884342895710732
-19.252220884550617 13.149694177175695 12.761658324631505
-20.74422218581992 -13.707051514738682 17.436862240176406
-22.97437265694367 -12.669458646369696 16.744127465090035
-14.639682372929151 -11.00383483493809 15.648611621762182
-24.988712952875964 -9.148779392583 14.061892885057555
-27.357630150995497 -10.157198456961952 16.072410952087367
-11.322537443241472 -8.696648382930613 15.278195501467788
-33.54854496013949 -5.693983601766064 16.481716685628015
-9.44508090267806 -4.896461848869715 14.588533662463451
-9.335602448500216 -3.576492919524058 14.38742939761709
-34.41058697500449 -0.5859037426750028 16.038333781737144
-31.746873225058444 10.418790501336163 15.02228412405112
-29.987213765841748 12.37981186572297 15.42295360947327
-28.122897048929648 13.978983251312645 15.940822541436184
-23.16864575879569 15.201532215031905 15.019380367915268
-21.892185502652634 -13.919573126802721 17.82278293078365
-18.7456418336285 -13.89161701346802 18.1957814534618
-12.561830994596367 -9.801532008856023 15.720786725236927
-10.521622730282886 -8.381054762570658 17.04871650528232
-9.751487403150243 -6.413729578628851 15.36769900995958
[...]
POINT_DATA 1139
FIELD PCA 16
mode_1 3 1139 float
0.004649287335865387 -0.0014366366276410947 -0.005527573911739428
0.0045236541912824675 -0.0014288656953313345 -0.0055485735584233295
0.004545993937078763 -0.0015565866116215392 -0.005644324865843654
0.004411700992648281 -0.0014836860941375442 -0.005617271189699648
0.004232497004114836 -0.0015875195180545046 -0.0057446449809262995
0.003840484739902627 -0.0016062348038832597 -0.00584034315396691
0.004740886659780472 -0.0014819778961602174 -0.005535550407183703
0.003416049491460996 -0.0017406240570621478 -0.006045548418249735
0.004750275705230883 -0.0017156600807753072 -0.005690906222489403
0.0036665274809090753 -0.0016900841092042636 -0.005953760334195573
0.004238109567829487 -0.0018141892210467665 -0.005932112096047472
0.004004966119905487 -0.00170791094451555 -0.005903380235688193
0.003908509908188315 -0.001818883082877175 -0.006031400050704538
0.004519631093593925 -0.0010713894756576782 -0.005328206844068506
0.00459771927317898 -0.001317777274193221 -0.0054505578718056094
0.004527750227303069 -0.0011850886729181066 -0.005376613734007046
0.004305047060417275 -0.001208749814630317 -0.005427942066639644
0.00420395544305928 -0.0014034733766645187 -0.00559094263936391
0.003921473886410438 -0.0012632192008642925 -0.005525222910463922
0.003549847918267433 -0.0014285314429021345 -0.00571894468705459
0.003744804755719182 -0.0017412181937363064 -0.005990729065294909
0.0039006146330812052 -0.0019322341088579748 -0.006139182756177626
0.0036262879420456864 -0.0019110489393659744 -0.006181542517080618
0.003971266296385999 -0.002054296866946758 -0.006216213656685028
0.003798314469302775 -0.0021178709604869573 -0.006332667285671297
0.003741229772432485 -0.002057643888273372 -0.006294785597542191
0.0034877878741317657 -0.0020825041107572183 -0.006374557085024394
0.0050338895749401915 -0.001301975549532288 -0.005334312385725463
0.004904087415173804 -0.001419895018420366 -0.005443837977500099
0.005101662149015627 -0.0016401971645202702 -0.005511811801352643
0.003616014485313207 -0.0012504008192919306 -0.005560923774713959
0.00342180968762857 -0.0013146466905355587 -0.005634123058511956
0.0032343755003988073 -0.0020025967930303026 -0.00634436812089903
0.00501416318718093 -0.0011563275327954856 -0.005271839802921468
0.0037953346668883176 -0.0010995568986762502 -0.005447052700275213
0.005219055906894884 -0.001442778210551751 -0.005354200385561768
0.005139673841668663 -0.0014492786343011158 -0.005391222586287204
0.0052264281145107715 -0.0018544703956977057 -0.005539224163605444
0.0033058606922503953 -0.00122024685922078 -0.005600859199009341
0.0049616159325079024 -0.0019466608066278344 -0.0057340322087430845
0.0033961575057734625 -0.0013614524798469206 -0.005672982204817471
0.0032037710082739135 -0.0013790900294527492 -0.00572971296155897
0.0044250432933728824 -0.002150924561275471 -0.006084588636832223
0.0036915225245541775 -0.0022250783802892247 -0.006431123915681788
0.0028809638043041015 -0.001936270540829752 -0.006323608187751778
0.0032441651140850953 -0.002341485610983977 -0.006664559177282577
0.0032210207120683017 -0.002193503067625109 -0.006535180295336722
0.005029566317999256 -0.00232815995904429 -0.005856253611062455
0.0027004356095160107 -0.0013756290516038726 -0.005840628019707792
0.002866832963121903 -0.0016397925854273916 -0.006026685547250254
0.0034150915476811143 -0.0024704317969306876 -0.006691452570193117
0.002915030743845457 -0.0021350051440586783 -0.0065279973797575126
0.004771260457548068 -8.799372503254806E-4 -0.005230671412425266
0.0033614023929474947 -8.395826675550139E-4 -0.005382012038329452
0.0033253656931038463 -7.805392866549233E-4 -0.005363390179209227
0.0030556198232960232 -9.844212962880346E-4 -0.005537676456444378
0.005179111255321948 -0.0026036518785114396 -0.005873525858579505
0.004559173422583611 -0.002564466828323954 -0.006248200310269716
0.002549570770563271 -0.001908870418491253 -0.00633393218629295
0.0029147633434987476 -0.0023351187850047294 -0.006721261842165338
0.0031153440639564356 -0.002438862585257313 -0.0067752998615351
0.004032254044238576 -4.758728123629051E-4 -0.005237569313619719
0.0036384284965175063 -8.111556733711389E-4 -0.005342031418762364
0.002616174250340323 -0.0012481164594246221 -0.005793311554400225
0.0052592641692753486 -0.002638270964300085 -0.005823936328338403
0.0024735579188299318 -0.0014813707286028507 -0.005942984493507699
0.004906127688361557 -0.0026902901412480563 -0.0060633571828334915
0.0024599168544767926 -0.0015770671587395486 -0.006030352583201681
0.004499902947686123 -0.002697227535215521 -0.006358317969424757
0.00399057140940658 -0.002486452662722114 -0.006465862802257984
0.004792981253488329 -6.472430146222239E-4 -0.005225044975306433
0.005139465835302407 -0.0011269156085045489 -0.0052455495763931775
0.005322098726449405 -0.0015707922176282428 -0.005330758161340907
0.005255723698063071 -0.0025207971350545803 -0.005749324326742721
0.002203867263017312 -0.0016748386181827675 -0.006183960584127518
0.002377812566830225 -0.0017985209879266477 -0.006248660018039759
0.004594196757756857 -0.002733507148825133 -0.00629649863762114
0.003020044826271007 -0.0025717835516091436 -0.006862950656165315
0.005228315620198946 -0.0011045577855366578 -0.005219599315217923
0.005301823554965622 -0.0021355865258723757 -0.005508800299122939
0.005165291362726473 -0.002700797497432705 -0.005831735291031148
0.0023389107448812145 -0.0019771835578400953 -0.0064297398253393544
0.004277235667941118 -0.0027299529112239495 -0.006429300026936185
0.002511840968310968 -0.002180846692935202 -0.006612568349415145
0.0035543455007683513 -0.002697479516989395 -0.00671313015754281
0.0032151731920688213 -0.0026777486483523264 -0.006868240973981785
0.0026566960167856667 -0.0024322246175710748 -0.0068396892520558306
0.004403824257393038 -1.2676513265215625E-4 -0.005237392484768958
0.003162482616795632 -5.676166133789489E-4 -0.005322975787882421
0.0027314897924685926 -3.711837534945546E-4 -0.005298147271518627
0.005234860620457937 -0.002549928268025471 -0.00558907285144509
0.0023597473891545048 -0.0015012467902089106 -0.00599918980311048
0.0020315319089828777 -0.0017551135793760883 -0.006308201951459083
0.0038003162779657674 1.5239917256183445E-4 -0.005279239231726323
0.002515886780083547 -3.079895835745122E-4 -0.005288260679848133
0.002322344459497809 -3.708732481384874E-4 -0.005335168365153761
0.005339492914884376 -0.0017227715433840614 -0.005235631589370657
0.0027963255064293794 -6.299700909798752E-5 -0.005228978612138297
0.0023183824936302186 -2.117459858636925E-4 -0.005261306694874854
0.002043461764415874 -2.046106258038726E-4 -0.005301202585325953
0.005364241608848568 -0.0013922254702693803 -0.005161872571512023
0.0020634873194585995 -4.0443744196704245E-4 -0.005426493584895317
0.005227143011310189 -0.002259181941469348 -0.005330157356959333
0.005091255781411149 -0.0026597528515941095 -0.0054519561395910375
0.004591286438293878 -0.0028711197340283716 -0.006227116291697736
0.002132001343001741 -0.0020044810397075426 -0.006490098184179996
0.0031586008826062057 -0.002734870831956621 -0.006876981966307698
0.002441368999984332 -0.0024701240896244122 -0.006877094352653249
0.0028356612798933903 -0.0027156560745147077 -0.006932778280340172
0.002540232853543656 -0.0026286760084996666 -0.006955353740756176
0.00264751841885196 -0.0025692819962396056 -0.006937752665334384
0.002265623260119421 3.1508332216689024E-5 -0.005175710903338519
0.0022682106376773 -7.296105588455433E-5 -0.005204881594834772
0.002065197434876059 7.332915334023381E-5 -0.005211617434787444
0.005159992602369915 -9.349369370996603E-4 -0.005222740752307241
0.005320947052831049 -0.001187237172443187 -0.005167800635926312
0.0020208724857702074 -6.172980165737966E-5 -0.005253070786491172
0.0019428496737146728 -2.9171827447410344E-4 -0.0053751011382761355
0.002453218074790679 -6.484144219801546E-4 -0.005496609052178404
0.004926483153211121 -0.00284627444210952 -0.005977871721359373
0.004051118063717228 -0.002924750714722556 -0.006441225177459969
0.0042530628448816474 1.6234575681462818E-4 -0.005244362043188436
0.0024076156942034682 2.451090197253471E-4 -0.005290878473998196
0.002293298821354513 1.2277126972323567E-4 -0.005193212838100429
0.0020522730097624234 1.4880463700270828E-4 -0.005287669980680445
0.0018577343990592281 -3.666675141685294E-5 -0.005364058254985853
0.005324919442694042 -0.0015966216497864398 -0.005142890040132986
0.001814458120611302 -3.2732174022256894E-4 -0.005491957015570169
0.0047407780168771145 -0.002974984266315142 -0.005991267701187686
0.0034268922050424908 -0.0028844691840108 -0.006706344976648389
0.0030843331137174724 -0.002811747181079609 -0.006875899426469657
0.002393377163493214 -0.0025982518817886146 -0.006919229025513608
0.00443126998155222 1.2915096589320322E-4 -0.005299418060711428
0.002094845738538561 2.4377945392903042E-4 -0.005403545606062261
0.0018066244597797969 3.26977481288406E-5 -0.005537133362006241
0.001625153356265689 -2.545964376789307E-4 -0.005636267194879485
0.0021425480135202203 -0.0014101927099316213 -0.0060587050637932495
0.00501324178015801 -0.002837667423946849 -0.005698418258656558
0.001852360825993394 -0.0019267836920972548 -0.006508000873323017
0.004296223363850053 3.644317595169001E-4 -0.0055067096088769465
0.00415175144858462 3.2109583792569403E-4 -0.005332847631547928
0.003728258800154203 5.525565311106243E-4 -0.005549994354076549
0.0029755185824925684 3.981553500106882E-4 -0.005431385658481662
0.002365463848203828 3.730740406975545E-4 -0.00549457946459172
0.005218575257108509 -0.0013201694710364132 -0.005163916374822817
0.005100047604726507 -0.0019037230570639243 -0.005106437271950776
0.0015241121016247518 -6.072356971762953E-4 -0.0058858482515334425
0.005018224295932123 -0.0028228909834535436 -0.005524465727907268
0.004445377462932201 -0.003015307410316872 -0.00619211834632516
0.0040340921061331044 7.209261580174911E-4 -0.005853591532053043
0.0020222708786477245 2.193765548188011E-4 -0.0056476022407749935
0.0017279911383208178 -9.134541106449837E-4 -0.005936573163404549
0.004811876790491037 -0.0028613514345609994 -0.005454611132155791
0.004741742260898477 -0.003005484905227804 -0.005769920928378087
0.0045135749578640505 -0.003083344227240465 -0.005984005292092825
0.002241647105519855 -0.0023848034562726312 -0.006787299135719297
0.0041738591768317335 8.120707692343758E-4 -0.006080859096922331
0.004388430275912145 4.406840694494181E-4 -0.005841281872883682
0.003123465243565063 6.830571083775814E-4 -0.005740492299939654
0.004754316374485524 -2.9187247315717033E-4 -0.005368551705676748
0.004730900986153426 -4.3428495328321734E-4 -0.0054565591643097825
0.002245021283836511 3.52630817615733E-4 -0.005715043354486598
0.00500505102634778 -0.001820382856626253 -0.005042260219582511
0.0015568736543594979 -2.5183325533109587E-4 -0.005826051477572846
0.001463021039963742 -4.5825251159530104E-4 -0.005898719457958639
0.004945693344085049 -0.002423269163085264 -0.005197215624855746
0.004212818933610803 -0.003086873877942408 -0.00618131298210116
0.0038015970832336516 -0.003051471191157538 -0.006378508072814577
0.0034176488537739553 -0.003014314996759656 -0.0065536301789975646
0.0026529081804886733 -0.002772739089792627 -0.006900368707398747
0.00426640053637287 7.407524019448115E-4 -0.0061206713881831725
0.003903484535867147 9.301623875778461E-4 -0.006302949210110348
0.0026115523960588867 4.987895769558474E-4 -0.005778283758800741
0.0021166053358690254 1.2965919424978326E-4 -0.006122856416965713
0.0017465126459145909 -5.86391252312223E-5 -0.005876034757812944
0.0014472136505953707 -5.194279942522445E-4 -0.006090398794013882
0.0049379584562711815 -0.0021868636962253207 -0.005083181580187728
0.0015933002699806253 -0.001862960938491665 -0.006572004939125384
0.0015925645944678637 -0.002208172431558146 -0.00682426260096308
0.0019488458118007848 -0.0023137517460197162 -0.006780741124839382
0.003046619752779038 -0.00288782547361001 -0.006788768627638861
0.002899133292228924 -0.002915926181443793 -0.006770599273569649
0.0035223200930470312 8.259944894268418E-4 -0.006007084994044344
0.004590047532977436 -1.0768321569265192E-4 -0.0056224462653306564
0.0015460714143773744 -3.750555253753571E-4 -0.006093472361204629
0.005069932813877092 -0.0019161537405760123 -0.005013291911402679
0.005051046111542998 -0.0019134592114591008 -0.004996787801037028
0.0014012513924918665 -7.220532354940811E-4 -0.00617062855981921
0.001385132242858121 -0.00127448435697085 -0.006360694013158485
0.004326668365952061 -0.0031369218382718334 -0.0059729501659802784
0.001281926753324758 -0.002098890045474128 -0.006869588220715194
0.004120097744066337 8.636573911569028E-4 -0.006358206334332285
0.004260010468299887 5.56167884023015E-4 -0.0062301005154995455
0.004379922262244586 4.54811176156355E-4 -0.005995173690070673
0.0044867541485837945 -6.415071009727775E-4 -0.00558381967462951
0.004922641447202717 -8.190600187380723E-4 -0.005312847778628843
0.001711463789752552 -2.861662342417251E-4 -0.0062289778315362445
0.004971637211991736 -0.0019330131401218617 -0.005017539393515722
0.0013643713450221953 -9.034244481314949E-4 -0.006368650646898183
0.004671056048060646 -0.0021570744790245055 -0.005035210222984275
0.0013732460081600753 -0.0010267181244867677 -0.006302730804585431
0.004527113558701751 -0.0027289100812713223 -0.005102440499458303
0.004453241168685371 -0.0031014930014775337 -0.005705335615681696
0.0023722251433595507 -0.002724280089281531 -0.0069045117469919304
0.003976640121039147 9.454708114986528E-4 -0.006581104078068167
0.0030447898855548044 7.620855354783003E-4 -0.0060189882349229095
0.002862576892729728 6.908385660209963E-4 -0.005938300230234542
0.0013491570078128198 -0.0010185925946834989 -0.006470592330477123
0.0013518036700229592 -0.0016685047473364968 -0.006603115399595768
0.001061702462930288 -0.002111582679103651 -0.006995419953335434
0.0036590081865257016 -0.003139524465736563 -0.006233984299497587
0.003232333507750614 -0.0030708969073784875 -0.00649087776770775
0.0038152258152385024 9.280631578461514E-4 -0.006804692743997469
0.003204787117956301 7.769650400785488E-4 -0.006296499116795611
0.004403838511332637 1.739410867283295E-4 -0.005921245322820384
0.002866281673601763 7.101264195829083E-4 -0.006052143196867968
0.002310508145388383 9.500304433926652E-5 -0.0065524329617344555
0.0021469760458409978 -1.1885971792824075E-4 -0.006656553292802791
0.004884768104602667 -0.001386041614170796 -0.0051958360946744355
0.004484282044069913 -0.001425008133553989 -0.005227056311027785
0.004383327932726803 -0.001720895148205223 -0.005125520218237328
0.004748193192823149 -0.001753790896563099 -0.005081112319778722
0.0044286929035517245 -0.003041550019408072 -0.005316656678460929
0.001218742839382461 -0.0016408009317980179 -0.006686436432450476
0.0012523149265739927 -0.0014810194301139615 -0.006622647423347677
9.583573192045099E-4 -0.0022022223806422037 -0.007116439376579211
9.169771786977531E-4 -0.0022681683626144928 -0.007133408238860731
0.004047440427745582 -0.003170783867050647 -0.005969990302451446
0.0038142599105142334 -0.0032255989754343636 -0.005962380240283745
0.0027395827737583455 4.8125802307780505E-4 -0.006323234956133278
0.0022687353324533765 -3.610814985938005E-5 -0.006730392132927408
0.0015118611358447135 -8.516685258754122E-4 -0.006559662560505939
0.0011786015652124366 -0.0017493810119345416 -0.006827068440247674
0.0011514534510330325 -0.0018712683921593958 -0.00700156118799469
0.00414476699150012 -0.0032076682634117454 -0.005499747884982569
9.038674039425295E-4 -0.002312435706401284 -0.007152291617054519
0.0013703811077071728 -0.0024201816313279873 -0.007087980409251418
0.003793345122496945 -0.0032542255978627033 -0.005887329133334301
0.003667932524405275 -0.0032433150832293966 -0.005945925176983741
0.002807374170950476 -0.0029289617196950972 -0.006765118268702753
0.003876443528945597 9.381846636171441E-4 -0.007079605721363157
0.0035388415330222197 8.668213153965668E-4 -0.006519641586668996
0.004310380164614414 -9.748583027334978E-5 -0.00598234742865145
0.0017597092038685249 -0.0013676202513012213 -0.007279827510653279
0.0013208224606539383 -0.00128819653635268 -0.006668612443134355
0.0012279698638379174 -0.0016690280283224172 -0.006904940243332023
0.0011130671119341914 -0.0021131856268948737 -0.007120995561947244
9.287799422324887E-4 -0.0023246730887745044 -0.007213799871255802
9.014044671133871E-4 -0.002401473008697195 -0.00724979893051194
9.10596781433831E-4 -0.0023659466271240583 -0.007203671624767904
0.0010422363557412832 -0.0023257026146903618 -0.007123068858789533
0.0038924901323177954 -0.003260121867325936 -0.005768132882453975
0.0012182318743723048 -0.0025307822436443743 -0.007240812643333569
0.003856262829267512 9.499266479697408E-4 -0.007197935640677768
0.004240281023526482 -3.62174378250996E-4 -0.00594132442785995
0.0018687570940451217 -4.001990103025453E-4 -0.006599263255042846
0.0012397764526609829 -0.0019118075870960692 -0.007125608054872127
0.0010094787430123412 -0.00236516457940892 -0.007278393053941649
9.596514165640995E-4 -0.002416596153437053 -0.007290416764232087
9.345417853141106E-4 -0.0024446443522027485 -0.007267007121679093
0.0012742532793438852 -0.002645249261240105 -0.007334323848380966
0.0018485882641087093 -0.0026259447623489347 -0.007090006976016098
0.003204062875361068 5.90097785707067E-4 -0.006740205834488087
0.004251432145724625 2.1654168894837442E-4 -0.006191356333193737
0.002098579892451566 -5.225523394209975E-4 -0.006985049310001988
0.00428848229644236 -0.001559725829763142 -0.005189076983101967
0.0010430714130510563 -0.002491837594781744 -0.007351707986224393
0.0010179230533762828 -0.002505008586911026 -0.007326863455151994
0.0010966606773480767 -0.0025410205174473672 -0.007301145237128271
0.003882891031281671 8.198529656097946E-4 -0.007205527310588439
0.0037871855459695974 8.142479780978327E-4 -0.007200518339541714
0.0014575003307233558 -0.0016504279971068507 -0.007142470327184678
0.0010983144666016945 -0.0023548673861632334 -0.0073028803814968665
0.0015636540542701006 -0.0027482274572290686 -0.007347978489254802
0.0039984648222544505 7.250432802853423E-4 -0.006835947710757416
0.004099167184584372 2.685261875835124E-4 -0.006526786246527996
0.0035543538019877823 6.780232060424089E-4 -0.007022235145518192
0.002926949120722974 1.706356607784899E-4 -0.0069853676043883225
0.004044617240292026 -7.555142703469708E-4 -0.005933666039770992
0.001892398901497746 -9.123886657026399E-4 -0.0070932462533677375
0.0017799385374874443 -0.0017882284949933174 -0.007529369036855293
0.0014312295630356051 -0.0022005859340508164 -0.007413017726554945
0.004136978101313206 -0.0031676730276991904 -0.004977131726845753
0.001268123899455103 -0.0024290083663188276 -0.007412852227227317
0.0011415057716383536 -0.0024985615865620904 -0.00739297397026625
0.0012682030358846662 -0.0026872763492979306 -0.007482662614285227
0.0024702694942422354 -2.245183967447245E-4 -0.007002442241807155
0.004241867744794364 -0.00159328762325443 -0.005184610348948664
0.004131324075765489 -0.001493903566414193 -0.0053063994962403585
0.004218211349975381 -0.002014180967429273 -0.005036804216982069
0.004112224240443294 -0.0025617710693306163 -0.004870469401304361
0.0014078207968396949 -0.002783508335171741 -0.00744140323132064
0.003988389415506829 2.4723048908434814E-4 -0.006904613762746184
0.004142101478272984 -1.3539135797179688E-4 -0.006219821889768271
0.0020427120988588134 -0.0013132621897527323 -0.007514977158075604
0.0016811092176617327 -0.002057550323137927 -0.007555204677292712
0.003996306489514628 -0.0033882210867094862 -0.004982620381951952
0.00365382228568889 -0.003305922238168658 -0.005781229434245263
0.003827466649014217 5.101117310849589E-4 -0.007397271468415168
0.00391772559419129 4.401145265284561E-4 -0.007278967694513467
0.003962726811439098 4.048052193916907E-4 -0.007108798047843891
0.0039239727430579055 -0.002088156966078268 -0.005027354419098641
0.003919976239061664 -0.0025521225913107044 -0.004794155426668102
0.0013403940397661413 -0.0027813006876094065 -0.007483499272666141