# vtk DataFile Version 3.0
vtk output
ASCII
DATASET POLYDATA
POINTS 1139 float
-24.11092223444261 3.854715232963508 4.448530492991195
-23.642618759981378 4.171178810042232 4.342865273548133
-24.261853640212927 4.8348379695979595 4.52073070172578
-23.47375633885051 4.844243500925036 4.264884447569541
-23.31505318883051 5.875221967448505 4.41318672761648
-22.04510635050815 6.813798731864023 4.661839414302783
-24.661347555824083 3.6513196307377793 4.84484904619308
-21.160137331831606 8.398422009043877 5.519820938834719
-25.793210274301515 4.561215725938201 5.6711188384572955
-21.802846975546608 7.766551459971531 4.798272636602591
-24.39343421459251 6.989625459456227 5.076594556502167
-23.06376531598201 7.171201076624246 4.549359705372356
-23.239622230268193 8.057184077044022 4.79490932750029
-22.877241850502617 0.5790985963800661 6.431092475085415
-23.58093764635269 2.9110524879105886 4.909422450335656
-22.956348683030644 1.9726383172089714 5.321013636610674
-22.217639890436484 2.6662557390435677 5.221685214970521
-22.47564018400633 4.58935276150241 4.589447291373911
-21.007273849310156 3.899295583490005 5.156507737308368
-20.287540069190555 5.808841807963941 5.314309046619091
-22.30982885630224 7.953459676462461 4.760074696633979
-23.7598293724799 8.671243952584847 5.186765241057952
-22.70572035310959 9.201365670349611 5.346508129353064
-24.636746033479547 8.971788301891925 5.867584978406949
-24.351284418964827 9.867935604606748 6.055098257817204
-23.840740592444426 9.731900089210784 5.776046957000751
-23.092230625071394 10.460852085012068 6.211737701471023
-25.380057578206312 0.7031914277704882 6.485187627887349
-25.149314777650517 2.2672249284310664 5.699974716392021
-26.890311337510347 2.4524255842493474 6.6017740047855495
-19.880682362657264 4.240858220936588 5.501144073063248
-19.385391535531962 5.068644693771403 5.5468357874016245
-21.78401709185652 10.485683749039275 6.416569427958937
-25.214731629221976 -0.6661682056369318 7.380718030747903
-20.14406738667113 2.482697517493611 6.099336618057621
-26.94793724097208 0.33159909890848244 7.529835372727716
-26.20303881777727 1.3805374425431396 6.377871262577058
-28.78080591783979 2.091323223468549 8.313491309176428
-18.69256396207286 4.221202658281319 6.290699797297772
-27.78871885578066 4.311923024031898 7.186374607761552
-19.45287893455216 5.5147030145392275 5.460416609904997
-18.84097292355901 5.752619762656517 6.044018880505796
-26.81209504552087 7.464114659066696 7.135721832464861
-24.58855985799533 10.543865777150721 7.037076592479075
-20.137370288619913 10.496868053008635 7.272045638625039
-23.68493145169466 12.446758360384637 8.20189854985243
-22.752086394780704 11.669969953923154 7.2948824860767605
-30.10290402809856 5.015851182184978 9.109480651028905
-16.95134457266527 5.853197722858685 7.697109982160004
-18.679132898741308 8.1227364303914 6.94571430643629
-25.05573070716145 12.539625306379694 9.144322763466114
-21.29690097847971 11.876360005948484 7.778382876187508
-23.969812151403595 -2.237432598512169 8.34596479429588
-18.023978125148812 0.7871191795795859 7.536858511395194
-17.813759784446653 0.348417369083146 7.744700298151955
-17.23537286225176 2.204614952550083 7.86524173908938
-31.96296823763391 5.2115272964642685 10.255075390339835
-29.493853849980724 8.365537477202649 9.446692080239217
-18.697490741762735 10.601458229141175 8.197522862710098
-22.439079891798986 13.156800374607842 8.95432982296917
-23.81093477737987 13.32653317554989 9.179496045274917
-20.45503090647283 -3.499178250587818 9.260991777287852
-19.078306016479807 0.12126236678878995 7.497142936442451
-16.160489207917795 4.621191857111637 8.490143712451252
-32.464021647920504 4.82543493967795 10.540991869097358
-16.464459295568577 6.948566343144153 7.97363525129445
-31.488262712261214 6.944709840749243 10.527438085021373
-16.79960428291729 7.787565590726983 8.06088270914808
-29.990035623222916 9.19727048871212 10.08405121005453
-27.12344372904784 10.479784311176392 9.000486985721425
-24.51069316767486 -4.768700913416967 10.477044293293398
-26.413219355370643 -2.228724039255972 9.050307676427035
-28.933917807326115 -0.9113333480547646 9.80446437843216
-32.11648765607781 4.146235797225612 10.525344007241813
-16.07163276687938 8.573587379148623 9.345476127037703
-17.41181144259761 9.734703463314874 8.613886668892858
-30.561249023885416 8.80018128544533 10.437143065170334
-24.24909626666047 14.25823305021983 10.80624052720503
-28.286647652940268 -4.467458219036063 11.753993786335188
-31.222146692001285 1.598101949710735 10.676344183115765
-32.74675749791373 5.196614687790464 11.242611187049619
-18.095020491686757 11.247844118381106 9.161775086309657
-29.52088504828728 10.1757120302338 10.67783400070583
-19.85878722499363 12.66026624306934 9.587300766338616
-26.932162004893275 12.988050879580449 11.25005494726198
-25.647408768853847 14.22540960460464 11.41495658812258
-21.97232634856094 14.302852539132603 10.547282818261564
-22.07837939294892 -7.033893097834149 11.56839274269477
-16.99577082491547 -1.2868539252908773 8.736437690535606
-15.124860834525848 -2.363844851311224 9.583278287796775
-33.11793583163094 3.203280388344527 12.135185875565417
-16.037170950709235 7.054848528197996 8.554807967523375
-15.472379319742545 9.11153836133131 10.528172380844325
-18.87886026553998 -7.492833916951723 11.820767065286795
-14.251402599215805 -2.6894692827309172 9.882922622671503
-13.584746982653789 -2.1843397970335734 10.006396654753692
-31.176502042628634 -2.297406397712112 12.412660895917849
-15.068972538287209 -4.744980024659653 10.504461651895458
-13.410107621263084 -3.329483719963247 10.230628460998938
-12.352026272449102 -3.380342196786551 10.667735224461046
-30.464872980474187 -4.461787202516445 12.931104565149264
-12.578881971920286 -2.066998213036543 10.660223102431715
-33.20697189872385 0.29286778074245007 13.383178322913716
-34.3248123912946 2.9273371565573947 14.165908292466693
-31.590103691878507 8.966106741783383 11.945626053170281
-17.01677620621584 11.304438002894237 10.668796783773077
-25.769726614093408 14.694975097375414 12.33163649366934
-21.07569062335026 14.903694499960775 11.885275160020486
-24.258368831553007 15.584587990124104 13.139929947515162
-22.3723325809298 15.790050425909607 13.134483434824586
-22.70618193861334 15.249358356337552 11.856962126216706
-12.988987715813492 -4.988388780786162 10.717779611128803
-13.101647801710524 -4.274210572800747 10.478057150350445
-12.160955385594615 -5.2792683149994595 11.19439735930529
-28.7998517033012 -6.438637220672932 13.53766926847544
-29.720147906615825 -5.3601490943260295 13.028019383724468
-12.129179357164631 -4.363936601413718 10.956296966255866
-12.02566470488916 -2.8460617879354695 10.853123928792465
-14.403246590598735 -0.27582488348483125 9.790726853376322
-32.78835464115276 6.883061073419503 12.050157020318682
-30.162876704376544 11.645379241078318 13.173566165302427
-20.871233364292095 -8.316690241497176 12.132907659275517
-13.145859539767992 -6.764323349694873 12.103977594936657
-12.958515682650042 -5.682955392264374 11.154829652754238
-11.925617051657381 -5.999678014967986 11.95411219526287
-11.360159432099616 -4.806978482652119 11.866932161395782
-31.64127083123988 -4.048615440448691 13.67542581182007
-11.446851912092095 -2.866717184186479 11.60286270761929
-33.21637262951504 7.93976958539426 13.488266822711557
-27.651696019777702 14.257785205769077 13.916888115159606
-25.899068188327853 15.321432154998835 13.648798401450833
-21.064589679033354 15.626299773270112 13.834286257894135
-22.09641438644383 -8.791306829261769 12.799163982108116
-11.820705721351972 -6.935915101137034 12.947468461432043
-10.824716016613708 -5.8171595013130615 13.244853686226318
-10.403583518555228 -3.9691287580720465 12.989168385568952
-14.564056709294903 5.810611999844538 10.323615663861224
-33.95049677415277 5.265284744111693 13.478629124919502
-14.804365745957389 10.251020202895994 12.191371364823466
-21.597632125941818 -10.191956548315138 14.279468211313947
-20.349694221170473 -9.176300854152963 12.910613338507744
-18.273681827576848 -10.10038051252847 14.208143583582162
-15.112156061473419 -8.322819899912012 13.172080961961763
-12.598394089259914 -8.03370159388361 13.704684111994998
-30.902111943096703 -5.564415089001045 14.277314555308662
-33.50016015854805 -3.4615922308312954 15.431082932218992
-10.137522586457102 -1.921486830762166 13.414020824739728
-34.629838367898095 4.2493047690464 14.463345095788531
-32.263632058787515 9.87070612970477 13.752467303292459
-20.049124990539877 -11.839612550972912 16.1018120208602
-11.240349526138694 -7.392821495500162 14.349851174286306
-11.467679860501974 0.9236253032842395 12.349973898171191
-34.993135828056175 4.5808284148426575 15.967580257661755
-34.16208494446784 7.145038739661989 14.942594403211997
-33.39407124698627 9.221587655526442 15.070670359502646
-19.13236921682993 14.164200524311688 12.687112664902534
-21.152160256852124 -12.850651766555304 17.355355238376454
-23.35426798847776 -11.79292349961686 16.628597697813632
-15.219160003992044 -10.48067275304587 15.367179204001355
-25.450769683890133 -8.27582479259342 13.770014324346219
-27.719655124316816 -9.291600239153968 15.923920045537997
-11.857183272079903 -8.40496604950092 14.962896944945784
-33.94449069330759 -4.958868101886157 16.434426662080906
-9.800783939909689 -4.687572340210142 14.305432167083007
-9.627169283616825 -3.3325340365344838 14.123876030731013
-34.86304258794501 0.12042771930186463 16.067794716603956
-32.12389573672363 11.106641044258215 15.234819177443743
-30.270182957392105 13.105759342735249 15.654684818697229
-28.31943506815066 14.753545198500671 16.181997757455182
-23.17734415159544 16.127213536548453 15.121511375723827
-22.249378568611807 -13.030771552854855 17.779092290493338
-19.190059233890427 -13.095101491576461 18.131268282312583
-13.123967505405938 -9.41519369869167 15.424499359278277
-11.007768601104726 -8.10262434304004 16.799336573029294
-10.172076148190314 -6.200037075086409 15.08433629676431
[...]
POINT_DATA 1139
FIELD PCA 16
mode_1 3 1139 float
0.003678146963678351 -0.0010052837083452625 -0.0034076765358996954
0.0035985094413779136 -0.0010071776322373085 -0.003420721892919487
0.0035820057690198037 -0.0010466038193451394 -0.0035235312278723008
0.003506127040802997 -0.0010258123608864493 -0.0034818648263198002
0.0033709188634887992 -0.001068982470779717 -0.0036067542806143193
0.003152065317373546 -0.001126905143163994 -0.0036872568143410697
0.0037493221179284116 -0.001032945284184325 -0.003428383431986412
0.002927343112882575 -0.0012569324911952675 -0.003906788453064696
0.0037550492582943953 -0.0011384888280725597 -0.0036124984986838247
0.003023539143149315 -0.0011687450919650611 -0.0037957603422022084
0.0033542035969506465 -0.0011468161862478736 -0.003825586018880288
0.0031945960719775585 -0.0011167216232678676 -0.0037601837163605
0.003113258696009658 -0.001154143331766241 -0.003894635310610558
0.003816551007053394 -9.396442848027605E-4 -0.0033137081189066587
0.003717271741578281 -9.908705553674686E-4 -0.003347678357419493
0.0037426274962198735 -9.625389179443488E-4 -0.003295744945307538
0.0036087664597162623 -9.928976054587807E-4 -0.0033334515344160083
0.003442350071860275 -0.001041478223068262 -0.003455769172915976
0.003381951950921351 -0.0010590100146247686 -0.0034042552434280157
0.0031274394965250486 -0.0011700443828296114 -0.00357373063960692
0.0030434432688062492 -0.001161777478361175 -0.0038384180738432424
0.0031062247848850887 -0.0011912903893840064 -0.004023315996179
0.002962744319045586 -0.0012296237715531306 -0.004052819786465423
0.003185052472539174 -0.001245081257361882 -0.004140606478098436
0.0030724518728893905 -0.0012734409114741824 -0.004260164359913746
0.003025712540326785 -0.0012553121752377256 -0.004201273195578445
0.0029075813905404865 -0.0013175678600306623 -0.004284692593118826
0.004064640017308496 -0.001030036478013204 -0.0032793752939655843
0.003920101571151587 -0.0010456541869722326 -0.003363406468387056
0.004044204001912251 -0.001159215606941936 -0.0034533686966988523
0.0032460850039315384 -0.0011115637404738308 -0.0034393865503555394
0.0031250721671168876 -0.0011684760914002887 -0.003493617580572575
0.0028024881295414562 -0.0013678956816603044 -0.0042447088855020266
0.004114615933238742 -9.865089995158241E-4 -0.0032652054743803004
0.003411445554733468 -0.001036633357675352 -0.0033981450549851362
0.00418913245904813 -0.0011183736656500717 -0.0033257639817665056
0.0040904968264721085 -0.001084384611872625 -0.0033209949502544527
0.00418249136800258 -0.0013088233221401429 -0.003546509605238524
0.0031236228788442616 -0.001172336625646281 -0.003523824602365563
0.003950820608800521 -0.0012804097542813567 -0.003714586149331447
0.00308950416471727 -0.0011860766172518843 -0.00352065049705638
0.003006214748576232 -0.0012454093549778712 -0.0036075946323777877
0.003586361594938856 -0.0013276892653138553 -0.004089874405066118
0.0030870187098674413 -0.001366180891737067 -0.004412473092581917
0.002698012740130961 -0.0014942288304541195 -0.004256924382521468
0.002894445870387907 -0.0015022516865362658 -0.004697246326151347
0.0028218421182003768 -0.0014390623179975199 -0.004495098076259376
0.0040896424364865675 -0.0014888636776690248 -0.003947882024801267
0.0027935266792653624 -0.0013904668515417062 -0.0038252426761060496
0.0027728355943000805 -0.0014225714246078433 -0.003936489032577252
0.0030832458565717338 -0.00156147733641313 -0.004828866709931907
0.002696422632221448 -0.0015342443992211745 -0.004501914053038587
0.004053204304829105 -8.597607715691069E-4 -0.003322182421389692
0.0033134186383601705 -9.95084276142155E-4 -0.003466724193211306
0.0033103118114013188 -9.60767403321299E-4 -0.0034798258603448186
0.003097293365213322 -0.0011218991424485915 -0.0036283019892430785
0.004252791701145126 -0.0016395894013765 -0.004040110610055853
0.003835773367591475 -0.0015340778740089212 -0.004428060864369783
0.0025896989892470515 -0.0016289098613686964 -0.004309579693259873
0.00276163553373861 -0.001624378645548872 -0.004796102109411432
0.002894317555925044 -0.0015966824422288719 -0.004884352338321047
0.003742346171765936 -6.615147264354901E-4 -0.0035066006448161106
0.0034524124594225232 -9.258017457110258E-4 -0.003434926116416105
0.002792831469995622 -0.0013690266611910604 -0.003873458279498208
0.00431527747963697 -0.0016762923932929928 -0.003998407032963113
0.0026647968905451204 -0.0014974857476261563 -0.003907347749873738
0.004124278023835672 -0.0016451863944748541 -0.004305118138447458
0.0026291564996007975 -0.0015422573311413353 -0.003997708738358927
0.0038541523044803953 -0.0015840116645004752 -0.004606462037083873
0.0034434335838552624 -0.0015115657360708463 -0.004619606435726565
0.004139923880236996 -7.434819529464448E-4 -0.003459164388836996
0.004236490970451701 -0.0010050674280413015 -0.0033077038738931986
0.004314642991411986 -0.0012570447266319832 -0.003383200010950908
0.004303807220439133 -0.001644578557840468 -0.003908619694477569
0.002489602060369409 -0.0017000459016170463 -0.004262335274799214
0.002541560103827196 -0.0016730634908513455 -0.004253150372739288
0.003939554014953364 -0.001619801931797446 -0.004571368035155801
0.0029780844005174003 -0.001762333212936639 -0.0051437205830321955
0.004341432970876714 -0.0010692914015106986 -0.0033852123562325993
0.004320435685582381 -0.0015345503627013865 -0.0036283077248094077
0.004309690300306194 -0.0017259121285446875 -0.004084626640835636
0.0025015255968224254 -0.0017650627407306886 -0.004478355396719034
0.003768490087990169 -0.0016428381324964116 -0.004749220838740469
0.0025870834466516384 -0.0017893210603460695 -0.004728964482846954
0.0033648878280805555 -0.0017331750650945816 -0.005090013264984266
0.0031616049847256397 -0.0017710212241860365 -0.0052304542679875495
0.002726264293883469 -0.0018281984552710364 -0.00505712701589753
0.004018290894667249 -4.016204044119671E-4 -0.0036782439545170586
0.003271094161124717 -8.325850935079035E-4 -0.0035790098941074077
0.003093263201382688 -7.503566039944858E-4 -0.0036935289859476458
0.004374779627770792 -0.0017570672967605777 -0.0038628065645542166
0.002600322574818345 -0.0015493010810146712 -0.004018397706060802
0.0023840279272327796 -0.0018481930736577216 -0.004505383994747562
0.00372780650975491 -2.160587541941932E-4 -0.00387349037074217
0.002997171404752586 -7.332166777016338E-4 -0.0037380395396005442
0.0028796551760171866 -8.075316394220379E-4 -0.0037899677602496453
0.004385456461217158 -0.0014626239081299175 -0.003380772369950312
0.003170274176036832 -4.888808148149787E-4 -0.00377946677854097
0.0029095629557974096 -6.81852933299296E-4 -0.0037819935025832987
0.002748012743735728 -7.003602403084647E-4 -0.003881572083872135
0.004409783125626187 -0.001318728611940843 -0.003301778269028666
0.002707168530075559 -8.553245851417911E-4 -0.003943010627276223
0.004380350060312396 -0.0017423778493905844 -0.003618811240261346
0.004401509986192805 -0.001915750318071804 -0.003928259685510913
0.004064892980329453 -0.0017557362258805217 -0.004665906740964007
0.002419408496034589 -0.0019571541095523416 -0.004701332435685575
0.003207892137234015 -0.0018769986446431576 -0.005364806229054653
0.002672830589415383 -0.002048492334585143 -0.005248110006475013
0.003050818526784062 -0.00205591437936089 -0.0055125904631815855
0.002832822927230129 -0.0021568480700249423 -0.005502100866634362
0.0028186527312908257 -0.001960342530706636 -0.005312701919557921
0.0029068699849852542 -4.7595087417077054E-4 -0.003821203562899029
0.0029020588792592864 -5.707294578422236E-4 -0.0037952766895084883
0.0027832380277398204 -4.4782091717476515E-4 -0.003925164514750245
0.004336615750495703 -0.0010144738538158775 -0.003494737255173608
0.004397266237942611 -0.0011910823583423185 -0.003335590701657174
0.0027480394322818404 -5.754701172124083E-4 -0.003906710489416857
0.0026664146353479945 -7.771761525226808E-4 -0.0039499133115323964
0.0028650458900262177 -9.911677962168015E-4 -0.0038512893713681835
0.004249477184751715 -0.0017825744199510744 -0.004366285407149736
0.0038560453100202415 -0.0018757659228485909 -0.005085649244383261
0.003984541753287608 -1.9200346512494187E-4 -0.003802441207149737
0.002960957026255713 -2.3911259530030678E-4 -0.0040869197291670935
0.0029155615333078073 -3.809028478665139E-4 -0.0038981185219411564
0.0027512465356790633 -3.5803463288856845E-4 -0.004080962784129451
0.0026145643490645245 -5.384974403462045E-4 -0.004107822214377212
0.0043936682905569265 -0.0014744501215861894 -0.003315324671273419
0.002546706081544848 -7.975762389474132E-4 -0.004124799334823492
0.00426634788077096 -0.001893715325434481 -0.004583546812982473
0.0035279691494732915 -0.0020147355980694804 -0.0054569068915327635
0.0032756099659847202 -0.002037903620295025 -0.00555269586726062
0.0027404721454760616 -0.0023355287774696775 -0.005560765462628096
0.004073419675979325 -2.0797379211005246E-4 -0.003868539906822781
0.0027480369646846504 -2.4184752607760824E-4 -0.004289977925426777
0.0025321168202318517 -4.3779378556502987E-4 -0.004402737761802063
0.002386966523806491 -7.087017245198117E-4 -0.004407774283611047
0.0024810638436760708 -0.0015951197416239518 -0.00428568432264648
0.004369901718373952 -0.0019003511178574772 -0.004193272135411654
0.0022348376188611207 -0.0021082613318094247 -0.004876405401080479
0.004018518988659645 -1.1203232788481057E-5 -0.004248972408015691
0.003944896984211348 -6.318624440551365E-5 -0.0039937934856275545
0.0037204755383351217 1.3028268148657503E-4 -0.004412144694686786
0.0032784437865454774 -4.6688548552313346E-5 -0.004276669165604553
0.0029010816441469686 -9.207325906087986E-5 -0.004440029408767352
0.004351878936370232 -0.0013133168079060317 -0.0034069897808147787
0.004310477135831488 -0.0017144138352182846 -0.003433982189467523
0.0022390997639819884 -0.0010124965863893178 -0.004583835714050132
0.004411302165696946 -0.001976276350982464 -0.0040932460145331395
0.004140475521262859 -0.0019083123163460703 -0.004879370957085028
0.003904907968665486 2.9335393589900017E-4 -0.004842065568261881
0.0026489745450865563 -2.3076516269247702E-4 -0.004621690453902626
0.0023176940934122783 -0.0012773646660455633 -0.0044598556243599305
0.004391057033154375 -0.002071579348247504 -0.004257180460218238
0.004356376842170098 -0.002018935024084645 -0.004532735050270506
0.004279031472090536 -0.002026072235769936 -0.004842402684978226
0.002549085729270304 -0.002241604552416741 -0.005262678318184803
0.003991124540596865 3.7641398443449717E-4 -0.005158717336161719
0.004064772482589905 6.059911307451398E-5 -0.004750832346381876
0.003364442319416955 2.4246917992771787E-4 -0.004792545369569049
0.004185745291671716 -5.215046408809308E-4 -0.0038635913005906773
0.004160856902760184 -6.61682213965264E-4 -0.0040666178228188
0.002785355746252595 -8.699479425717994E-5 -0.004745199729238409
0.004234142535082348 -0.0017515067422916026 -0.0033559287446508976
0.002288753298258644 -6.727308129902752E-4 -0.004692540153792399
0.00220416902601273 -8.660872799903454E-4 -0.004695868758780201
0.00434200546006926 -0.001945482227462235 -0.003783648987109994
0.004138317437208007 -0.002052085972392852 -0.005126066507326677
0.003927988017104178 -0.002144837182384013 -0.005428514482475133
0.0037162265793213804 -0.0022901919527592548 -0.00568979936132135
0.003034668938108576 -0.0024137367617363685 -0.005770754855988309
0.004031960059104201 3.1480961550910054E-4 -0.005201258818024597
0.0038548588915991743 4.7791378505499443E-4 -0.005500379413280809
0.0030242046818680438 6.34263618125212E-5 -0.0048391238815803225
0.002624326617458764 -2.601109823748022E-4 -0.00520234735193497
0.0024079315899174615 -4.727993417005598E-4 -0.004834135357536821
0.002139221772551976 -8.971541662533825E-4 -0.004942248508568754
0.0042901692935069435 -0.0018885882693197903 -0.0035972125328882186
0.0020065765671170434 -0.0021569878443500976 -0.005034095655950121
0.0019640605549839413 -0.002556661763402539 -0.00545376144979502
0.0023113558131756854 -0.0024766175891911863 -0.0053849443716729875
0.0033707527854596187 -0.002273812975886075 -0.005730805069996625
0.0033399540867532452 -0.002523255620352627 -0.005912256764964707
0.003614656285950445 3.834691569364336E-4 -0.005132459288238769
0.004115817692743633 -3.961302380435809E-4 -0.004369846677673511
0.002207682931750204 -7.526026407794488E-4 -0.005008175069167624
0.0042624648807928255 -0.0018193276173677617 -0.0032756174293240175
0.004247421653693726 -0.0018375940197014017 -0.003254421576143366
0.0020802824960012693 -0.0010852812284167196 -0.0049522361263565065
0.0019618469812037707 -0.0016110954799816014 -0.004948430910926044
0.004274670853507452 -0.0021358747513195845 -0.005047497386352967
0.0016600799866791235 -0.002492711732619178 -0.005488541798354711
0.003970293590846247 4.193965973590154E-4 -0.00555944706162539
0.0040068820528185705 1.5325571370269447E-4 -0.005363313474461803
0.004056001176380989 6.755391935685286E-5 -0.00499369778844374
0.004028754929524429 -8.353696122279772E-4 -0.004421337826969575
0.00423130061377978 -9.579240948173873E-4 -0.0037663273701733437
0.0022955213359055803 -6.474021174876005E-4 -0.005212736002629095
0.004233252383152194 -0.001825477828429199 -0.0033741684248227606
0.0019939958525258573 -0.0012351555786062115 -0.005145792657204663
0.004196500971075058 -0.0019177573948734985 -0.0037824014781211073
0.0020002371891249837 -0.0013677063897581468 -0.004987017920545063
0.004335744883919761 -0.0021977323779806 -0.0042784186987093326
0.004354633815874634 -0.002196033019307016 -0.0048348223711460895
0.00276886892038829 -0.0028118653010235093 -0.0059348467955194105
0.003905773425800291 4.892858633590264E-4 -0.005876989183002104
0.0033064669044608995 3.2948982009151415E-4 -0.005199400648794364
0.0031875514563854046 2.5995947645666225E-4 -0.005095884690304649
0.0019461444923417142 -0.0013368553468371348 -0.005238752264648944
0.0018138542820978552 -0.001990894055407394 -0.005148475360148546
0.001407338696749236 -0.0024976911514960017 -0.005630291997278892
0.004018144454159863 -0.002425471787887773 -0.005680272410429336
0.0037050918583917654 -0.0026649462195065593 -0.005965231954233829
0.003818876624939367 4.68520266577895E-4 -0.006166795072389895
0.0034071069383586707 3.436101716219177E-4 -0.005534836513997053
0.004039592282808121 -1.684738836381173E-4 -0.0048894509165103
0.0031835107056812553 2.8594517985427277E-4 -0.005252637432792448
0.0027064474688496547 -2.6049880094059115E-4 -0.005735803893877011
0.002557711893209076 -4.527308035804864E-4 -0.005807728304893848
0.004191316293178822 -0.0014081805779743138 -0.0036457481515699114
0.0040033192855212126 -0.0014658990536169669 -0.0039575369193679336
0.003978457997165873 -0.001682876638127296 -0.003944932072519811
0.004133503952261732 -0.001702478564765319 -0.0036067356047381617
0.004403420054055899 -0.002325377128527553 -0.004681647467729779
0.0017203647452526292 -0.0019511616768220735 -0.005276167036211541
0.001782239224532425 -0.0017921920573208603 -0.00525220363043154
0.0012511507942799122 -0.0025820483263853796 -0.005772075604776562
0.0012034186675820796 -0.0026914402388698243 -0.005804552615854659
0.004230042935305179 -0.0023088785066680572 -0.005336233669672655
0.004231822455009098 -0.002513102670331045 -0.005652503960403469
0.003066654210723322 7.530213895288073E-5 -0.005533862752076177
0.002647344530388285 -3.7190861898496306E-4 -0.0059259961250274044
0.0020510436254279766 -0.0011678013589784555 -0.005437585568063475
0.0016244591070156912 -0.0020513930139445724 -0.005449711984144726
0.0015265094666426589 -0.002159196911633863 -0.005667357323638354
0.00439367007758105 -0.002498723687137427 -0.005186780672890632
0.0011808539680770273 -0.00276293315397386 -0.005839831270604471
0.001640877882007438 -0.0029213211570641093 -0.0058887931837832775
0.004274195525799639 -0.0025921828660487017 -0.005710703919201483
0.004192121431918415 -0.0027032896487038448 -0.005818251306813235
0.0032808899449798144 -0.0027600678644001788 -0.0060427270098388705
0.00386870862426993 4.7167232646599553E-4 -0.006521444302876665
0.003633872359411085 4.188144187888817E-4 -0.005804661725944848
0.003961458884482315 -3.9885673829731126E-4 -0.0050426194334163765
0.0020501884749260122 -0.0016228640557874856 -0.006224668331860453
0.0018417270371853254 -0.001587534154563815 -0.005407741144513268
0.0016563477146045486 -0.0019512589131274844 -0.005594796600920382
0.0013806940726334518 -0.002434739359515615 -0.0057891645964599945
0.001135950315542348 -0.002721729956771988 -0.005901120584303281
0.0010738977474704914 -0.002839874276153507 -0.005961831532727616
0.0011326457071431791 -0.002819786520227078 -0.005911289006841292
0.0013131578292285575 -0.0027934887010738576 -0.005836161010984525
0.004321867789654272 -0.0025881936379357506 -0.005586960708967856
0.0013809074349183429 -0.0030961156320921633 -0.006089799826039317
0.003865004325098966 4.781345515305157E-4 -0.006667289356518976
0.003909709254324346 -6.165880917281015E-4 -0.0050594818198401
0.0023369643833870434 -7.232282910222616E-4 -0.005646557504325778
0.0015454239726144896 -0.0021867307333338997 -0.005840601466908718
0.001143732734736734 -0.0027180680803925673 -0.005974958598637592
0.0010802769188305345 -0.0028049554035917217 -0.005998482628928324
0.0010838573822338224 -0.00290993113025009 -0.006003477382398787
0.001341790234402441 -0.0032550138890786217 -0.006246726805527328
0.0021290709317029317 -0.0031130525307665937 -0.006091329844866482
0.0033963695096354985 1.6470583262087504E-4 -0.00606493538243228
0.003960868239668253 -1.3729487804614243E-4 -0.005347051130563455
0.002454089699969634 -8.263059366362736E-4 -0.006106689342382191
0.00390831800501659 -0.0015807968044082264 -0.004043142799573763
0.00109058243016263 -0.002872920070824466 -0.006082199912825315
0.0010899088896533494 -0.002945830365649355 -0.0060778352262461565
0.001194154452569915 -0.0030674327747628573 -0.006109849957998363
0.0038727542661208102 3.582310704822366E-4 -0.006696540658800518
0.003816508114756368 3.49911468701075E-4 -0.0066710416044327555
0.001768765232696686 -0.0019116208119212574 -0.0059519159043536895
0.001213804398538766 -0.002677240562043287 -0.0060048663192628325
0.0016358526549522278 -0.003416460484658822 -0.0063887483719444905
0.0039077315928368155 2.879089627405276E-4 -0.006238843832673194
0.003904670491141099 -9.803991906272444E-5 -0.005892080404464982
0.0036496701521239088 2.308076370368623E-4 -0.006430017250164779
0.003165288953349811 -2.212363162051974E-4 -0.006305143892911775
0.003814763314742267 -9.290088571428836E-4 -0.005280723714563075
0.00224495864492355 -0.00119174769037966 -0.006121980290201993
0.0019498608769556568 -0.002029706279672667 -0.006443930431670204
0.0015391155882809888 -0.0024712677839391194 -0.006191374338862977
0.004481252511712315 -0.002620779058962839 -0.005006883950321924
0.0013018285897923815 -0.002735594247760214 -0.006154704287245903
0.0011576281938190656 -0.0028422491077494385 -0.006127638450558223
0.0011615697238135856 -0.003097756615365831 -0.0062835308389459785
0.0027746655204623993 -5.664223957998757E-4 -0.006225148233523986
0.003889558451488435 -0.0016055027805758014 -0.004078849598190624
0.003871877950819817 -0.0015035540504163734 -0.004423601974827478
0.004004862944010896 -0.0018594092069634648 -0.004168977233079761
0.004191422047969677 -0.0021976803245172473 -0.004486240501319915
0.0013472196599732566 -0.0034182481933978026 -0.006411406389459395
0.0038721128396452483 -1.3221036602834051E-4 -0.006460031709566803
0.00388213305825829 -4.326529835333802E-4 -0.005499601594743389
0.0022715054723551975 -0.001571675729352847 -0.0065577864750749676
0.001783104909920564 -0.002302978813733382 -0.006416772443465688
0.00456930342023043 -0.0028942345661393527 -0.00540299185816593
0.004277030998502224 -0.0029288903414469046 -0.0059322970718376595
0.003841040308886905 5.86251063340553E-5 -0.0069636596905170624
0.0038796925916942822 6.786751593709272E-6 -0.0068680767164027
0.003883751210823292 -8.251169972647376E-6 -0.006685706667850329
0.003924323904460488 -0.001900765221850875 -0.00454038856214017