# vtk DataFile Version 3.0
vtk output
ASCII
DATASET POLYDATA
POINTS 1139 float
-20.618803958361454 0.5515632804621808 3.758059254527271
-20.216751949973634 0.9009663991915131 3.607591159326208
-20.929149496049007 1.5007040808392416 3.8351921977607133
-20.162795579438296 1.5748340547989705 3.5064657902167995
-20.17638487020699 2.6005760228432515 3.628554503357593
-19.098103625198828 3.627102430430253 3.7661824544063793
-21.123482499747166 0.30731677520834505 4.214743029180581
-18.5052221255712 5.25743328412471 4.5535323133483026
-22.39647623610051 1.1114030625995959 5.160053581977609
-19.011854124837267 4.584871522406166 3.8667967190998587
-21.419320772430435 3.611179851895282 4.382501365531141
-20.13838272219752 3.895400214810811 3.7216376273388656
-20.451811531741576 4.754096056054029 3.967033624410757
-18.889526823422557 -2.54930230278442 5.667702024779458
-19.952492375357153 -0.32722795332175375 4.188187579490086
-19.196045230009553 -1.1928699930492548 4.555328417567953
-18.607700583328853 -0.4590462319095473 4.398292008669499
-19.1622247914168 1.4068816840039011 3.7618825627729686
-17.655120884461404 0.8420113698101647 4.240466833038885
-17.269748918936486 2.7726400686344705 4.334390614781125
-19.531246732437427 4.7275872177848575 3.8607046986862392
-21.06505875617708 5.31906568299087 4.399612607871293
-20.122146177044442 5.928853186682857 4.466087085632313
-21.99263349927128 5.549909405421447 5.175457623747051
-21.856579970428484 6.459115703040632 5.319134330694687
-21.325926307224048 6.363932902074551 4.989206241401722
-20.71623496880814 7.148559590740942 5.360947502643756
-21.31207951617887 -2.6246556743475464 5.957302233617279
-21.365952755888408 -1.084847881943349 5.139085818065995
-23.107865776077187 -1.041451645444664 6.231627288703038
-16.642308319043465 1.2576938286786792 4.512627778151122
-16.301129791044424 2.1087683732287967 4.523044700096344
-19.44577821449998 7.276323954488199 5.474831925566068
-20.89964411809521 -3.92784963290473 6.832744108031174
-16.622543158460633 -0.5017847851960981 5.136407380170681
-22.775448222195937 -3.101185218220307 7.169619142678844
-22.23222100478671 -2.034582483933407 5.93198820847792
-24.941335398643194 -1.5329916254286196 8.176361710228251
-15.525362070670328 1.3018549029390545 5.232465618120363
-24.350012776386507 0.7116852041540935 6.920552431296763
-16.432067472152156 2.5452218340008264 4.43679007855358
-15.8952746020417 2.810141760537671 4.985981614898484
-23.938456906854714 3.897065825633914 6.733329860227237
-22.229388686898147 7.118172461605138 6.347429332838669
-17.866762304129054 7.408228003462299 6.25642080781786
-21.663024858530054 9.083784483679443 7.428735657174391
-20.596429176487078 8.37926154799532 6.430373960831752
-26.847114436380064 1.229239695982125 9.14513164469369
-14.138686448938747 2.9862537777247775 6.53986544011875
-16.109013230273103 5.152946970738417 5.866660204292691
-23.07587619930714 9.075873270017626 8.533052575372023
-19.21112022847225 8.693100275437878 6.827892872613782
-19.411238800467995 -5.338685009445673 7.658374103472448
-14.379240048528882 -2.0510878663126437 6.427196141413897
-14.118237289844446 -2.476318236141333 6.6123148421768
-13.86360776205152 -0.6409782420987763 6.711422384910425
-28.806088988431625 1.2716770480027904 10.546020746183752
-26.85788118772881 4.588815950676213 9.391119640369139
-16.507151261508948 7.607113251313044 7.126901204300464
-20.55993339586478 9.883718134232577 8.10710109306223
-21.95351239733268 9.952836111925016 8.437854914816157
-15.869478338208653 -6.3343588005196665 8.237440654635181
-15.24864325978145 -2.7603721111798523 6.446292898845513
-13.210340415588924 1.7801882644970848 7.292103466775489
-29.251304142289374 0.8505795383977233 10.902179196091648
-13.847201884406207 4.103596109447063 6.792470309268304
-28.66363369213024 3.032590409879028 10.743128270654873
-14.284918180148097 4.918047684423879 6.897884545141049
-27.529599090767956 5.377728994736872 10.089860285065111
-24.81631875673843 6.870098572377586 8.636418412862467
-19.419555310414474 -7.759870677349187 9.793973643701007
-21.764666850499896 -5.5076252575255955 8.613824444202612
-24.521817787172726 -4.442522510286344 9.672537188077705
-28.76552092711514 0.21591405099424868 10.833466437959258
-13.70224630191851 5.7087486653981925 8.168764180211229
-15.146532305168328 6.816218881384881 7.49359837279841
-28.054795583955382 4.9435298275255475 10.520498956113206
-22.58460194774243 10.850894304018635 10.166382003622779
-23.158249716940446 -7.769191661240804 11.497521843662946
-27.356465593995733 -2.194026561283248 10.847820553086029
-29.646052014402805 1.2099226904097649 11.629829549809651
-16.025333667512232 8.277010347317187 8.087815332691875
-27.250209132803782 6.393898389430889 10.626706263909188
-17.950067785852333 9.564755474677693 8.625637983379654
-25.112640229320302 9.390897890994665 10.894933325403802
-24.00897636229097 10.718456660718903 10.914454695292966
-20.3037589376715 11.057610437040982 9.73038388130101
-16.61188209308523 -9.709152962064561 10.567129869455206
-13.10943279191147 -4.070753940003723 7.512319349828744
-11.251363864705327 -5.090951132013656 8.209135755159817
-29.674390562485716 -0.7648510637998075 12.554997424870162
-13.456380439068488 4.21073773502259 7.3559999843650745
-13.185600982359428 6.247060409653609 9.354292767538702
-13.539363298885805 -10.006503615546427 10.523892735333499
-10.431314412367477 -5.4088698337372305 8.448418179891942
-9.932056726200068 -4.931768389725428 8.54867192861438
-26.54496902189062 -5.954995202430009 12.543203823862937
-10.777301471192304 -7.410879339495826 9.047802459589438
-9.602114927191714 -6.056177723566671 8.728945023818227
-8.672034311840914 -6.15082811153987 9.098658367891646
-25.346968612549308 -7.968704270718434 12.945960408254596
-9.047606481703971 -4.861789343001161 9.13964216481856
-29.223930175978257 -3.60333951096634 13.783394520491793
-30.970723159313486 -1.1001896607299027 14.712312261191334
-29.204416151711815 5.0493555626256805 12.164647907338404
-14.97258842142192 8.366297619180608 9.609178960727382
-24.23533092981751 11.178005198194098 11.882609495982093
-19.504440369530187 11.709049858728314 11.095516563832621
-22.848229139929302 12.16782708529372 12.61927519464879
-20.95474667941992 12.500303992819918 12.492886986638403
-21.20102586400813 11.946959756981535 11.148402689601014
-8.957629661735004 -7.692613237723153 9.119458543696348
-9.184830722923687 -6.9914967963892884 8.922000147363347
-8.17054846007203 -8.010623739939595 9.526196479271176
-23.263872453015825 -9.655411755688784 13.297946718358006
-24.398738504092037 -8.747906250508333 12.931556190743391
-8.311994949197535 -7.1236420253487385 9.330298666433766
-8.461729860330022 -5.6489980932597454 9.28122521080822
-10.918547795391058 -3.06353403605096 8.41757746214631
-30.052453830585797 2.8916801275564445 12.429512477181513
-28.271902739989763 7.831292932228466 13.226308819472386
-15.172386058211872 -10.823604021380284 10.959559166926706
-8.642338177134725 -9.375080591593223 10.42732972671064
-8.772699777896728 -8.364420837206747 9.517654091878914
-7.775449115322132 -8.71789700492994 10.234021680606114
-7.513494728525958 -7.609117951310622 10.166210728989538
-26.66507101089689 -7.678299381734848 13.842578024640732
-7.903160852866687 -5.714589923033378 9.981625420001206
-30.76832111496845 3.9310565077589197 13.908652543372426
-26.148133175823556 10.611379103553336 13.724114663335387
-24.502746224684238 11.792141373085466 13.276912555125875
-19.58722114785419 12.409732373298803 13.192334054959689
-16.201419694695343 -11.303662872121755 11.725393792234108
-7.417991399414618 -9.603262421528834 11.177704666615814
-6.761133022277152 -8.61489495922587 11.467536718162268
-6.746484103634759 -6.8845792305600675 11.261913736209149
-11.863294422228531 2.9630525177050364 9.048145223887898
-31.014662581250036 1.2243628418735488 13.993079728614283
-12.633370428371634 7.381915855732231 11.049749273014273
-15.35715373282993 -12.499234301092269 13.111131634604318
-14.462784873343645 -11.567166069508998 11.657589188443879
-12.281727567421285 -12.307438481525498 12.757966964339989
-9.927943581296516 -10.73873291062007 11.564370020897568
-7.784342350650198 -10.563174270851428 11.93969310147039
-25.604436281473046 -9.033788978292977 14.31903786788248
-28.81237734055552 -7.2638733558535415 15.824182927405378
-6.780350266541458 -4.903164489381004 11.732634812435649
-31.57483010407742 0.182424015410699 15.049759067741238
-30.154408944603535 5.922325541618437 14.053371164907913
-13.401718651239015 -13.799344131441721 14.73500033998426
-6.703481513606977 -10.03748866286056 12.534571526166546
-8.357654851620458 -1.9827723823639658 10.806241458721223
-32.116587208644134 0.5118241547378349 16.56927981849453
-31.681849292334483 3.094968341720441 15.468667666419993
-31.281215959972236 5.213201517830286 15.50550851285119
-17.43206001323028 11.0762843218732 11.872079902114178
-14.125426559595821 -14.647503591352143 16.0487758489672
-16.598812746493117 -13.929128525967705 15.580583759118708
-9.366509081024226 -12.61223470409176 13.679264565589373
-19.555469362969976 -11.036298223045302 13.07974509942168
-21.62787217577744 -12.132777345285888 15.458707805391564
-6.959480811111069 -10.910093518900256 13.145711037931871
-28.97102761298418 -8.761890735982288 16.880342233205226
-6.001139660940817 -7.621848093294882 12.51757720665001
-6.0942381155105565 -6.337977017186715 12.374280594607823
-31.069544295940574 -3.869718093557066 16.629609782566355
-30.310991749943113 7.176449241623545 15.529362710674038
-28.74557072077147 9.292604147526141 15.774307652799939
-26.994048073390076 11.060880316941766 16.163345797377556
-21.830248139458156 12.76326007087912 14.695518345100647
-15.143309952900042 -14.855108714066098 16.57259685452059
-12.16496964757489 -14.715077410469164 16.66678535099715
-7.779863039391944 -11.729707695069097 13.647918264035141
-6.12217272034162 -10.60113041199068 14.96908546305667
[...]
POINT_DATA 1139
FIELD PCA 16
mode_1 3 1139 float
0.003077587795975989 -5.901179592422522E-4 -0.004484052067436882
0.0030849942498841574 -6.077574136460927E-4 -0.00448515873960317
0.0031218970335261716 -7.85320152744308E-4 -0.0046022973640252405
0.003105792828542002 -7.120469738483257E-4 -0.004548543236746859
0.003157981142792335 -9.00600174962192E-4 -0.004655655414086765
0.003211295268459769 -0.001000298192420744 -0.0046515782609452055
0.0030948964721324765 -6.341248197465724E-4 -0.004494020998560178
0.003326902944693455 -0.001250097992769457 -0.004716559386187672
0.003192723691106139 -9.687422942267573E-4 -0.00464597797896387
0.0032557799783984416 -0.001157294521334183 -0.004735717879014182
0.003262054290172494 -0.0012243240124665327 -0.004853205194333615
0.0032189536567727444 -0.0011262371346931967 -0.004791087849544327
0.003277498407640537 -0.0013051520099446848 -0.004910363117724449
0.00307089942417562 -1.4667812187731715E-4 -0.004149291230059173
0.003075907839833054 -4.3806251092429074E-4 -0.004354635161952231
0.0030720346828507585 -2.7310876341514386E-4 -0.004232116140812489
0.003094133896436137 -3.3560455913179905E-4 -0.004243365005676354
0.0031242104422854818 -6.322532398526674E-4 -0.004441314130413247
0.0031413929110919664 -4.6587925110607765E-4 -0.004260497501850234
0.003215481116539785 -7.552713483541432E-4 -0.00437430566965662
0.003264047742153928 -0.001221518648256708 -0.004810603341222709
0.003345595514128324 -0.0014661564175051922 -0.005014768327634305
0.003373027017575415 -0.0014839862824788945 -0.0049689261005355055
0.0034319830124238853 -0.001623832813048808 -0.0050743732744706685
0.003495278539929392 -0.0017512942948949087 -0.00515085904418118
0.0034546889903569254 -0.0016762546045035044 -0.0051107489751487925
0.0035183207541316197 -0.0017541160760729086 -0.005085984794700987
0.003065103013580584 -3.645010500028437E-4 -0.004239031146693882
0.0030889890886885607 -5.233809157866487E-4 -0.004377377850470232
0.0031390733139688163 -8.100236491381557E-4 -0.004470868680925308
0.003172115496925514 -4.8081664711402503E-4 -0.004206965695253925
0.0032035599435031683 -5.955840565175497E-4 -0.004231557520602772
0.003503365109632274 -0.0016663443047120747 -0.004945836396618428
0.0030547664679332676 -2.3471305255634242E-4 -0.004141855508019937
0.003121940328639142 -2.3624536221728264E-4 -0.00412310214198417
0.0030839461994548365 -5.791251818562247E-4 -0.004279801257610553
0.0030803931411342053 -5.329299277843702E-4 -0.00433180851792129
0.0032038216055525494 -0.0011577693189231003 -0.004501619058872892
0.003176691144494015 -4.432498340188853E-4 -0.004151474747374592
0.0032788224300504035 -0.0012736447007047121 -0.004689543953302904
0.0032169116061665955 -6.710199575667705E-4 -0.004269123927495548
0.0032293268463311786 -6.950244471198991E-4 -0.004258413591500073
0.00347648989024831 -0.0016737511337203135 -0.00495177959553217
0.0036285350768648747 -0.001928117391039402 -0.005137907925129371
0.0035063972998412183 -0.0015835572350575188 -0.004733626963293528
0.0038246535929944824 -0.0021821071803682776 -0.005147877679588769
0.0036662442976427537 -0.0019562671807377627 -0.0050836355372622325
0.003459057526971582 -0.0018476933839846334 -0.00479920691805061
0.0032035981138496894 -6.572799091615492E-4 -0.004197143571493029
0.003339104293246838 -0.0011019002132973367 -0.004438900136400224
0.003959854085295192 -0.002367446914420084 -0.005136566348151686
0.003652466087814703 -0.0018960206878691937 -0.004929240872245325
0.003046688512033201 1.5484350183012412E-5 -0.004052553573087916
0.003104105096334808 9.688624354449332E-5 -0.00395667986658917
0.003092711561726903 1.6615599345873807E-4 -0.003945233181971792
0.003100530986882836 -9.390172722732393E-5 -0.00403371069247671
0.0035536213597866517 -0.002222492760750737 -0.004843505573060834
0.003775560891082373 -0.002273145240453636 -0.00504163343796566
0.0035004092517148064 -0.0015377397455078844 -0.0045751555499279695
0.0038663863861591466 -0.0022162040775422155 -0.005024616844972931
0.003968743077443302 -0.0023619982096659943 -0.0051261514823113495
0.0030460248726631484 4.2504830577498376E-4 -0.003978124202795848
0.003088816096495439 1.2320504905075373E-4 -0.003985791396273199
0.003118042298382603 -4.321464333268843E-4 -0.004125975919073319
0.0035331802005725953 -0.0022659825464642286 -0.004817410678944954
0.003250967531377508 -8.202387910400333E-4 -0.004217675771354192
0.0037512590644745306 -0.0024255280703641886 -0.004926589883042339
0.0032921562116160295 -9.748850550076049E-4 -0.004286390397791197
0.003918469466762844 -0.0024883819227093534 -0.005097824760004821
0.003859113219754317 -0.002279004667511019 -0.005100867400962167
0.0030266383524444416 1.173360048280661E-4 -0.0040502081272098586
0.0030413311803635648 -3.079396499267748E-4 -0.004118790802527935
0.003089483322958561 -8.966896387630889E-4 -0.004268977001893711
0.0034697006771110734 -0.0021297974450342353 -0.004741848003662336
0.0032709252065616016 -0.0010857471605721378 -0.004305213173771379
0.00339916269348314 -0.0013336194421847494 -0.0044250399182836795
0.0039184264798906646 -0.002541963545240777 -0.005049655118425086
0.004166846966013411 -0.0026128318880656617 -0.005009175505861527
0.002983410602219398 -5.120493076774086E-4 -0.004121316580102644
0.0032669557830414075 -0.0016727743711455146 -0.004499478925588315
0.0036255171763807993 -0.002437032596146207 -0.004784684303673988
0.0035142668673400143 -0.0016284822245077812 -0.0045424577350535325
0.004038266897368075 -0.002627541685219425 -0.005044406944575347
0.0036986475433597853 -0.001974402000604017 -0.00472311985321425
0.004232913340438723 -0.002751975707939953 -0.0050058155854184865
0.004295740084300526 -0.0027741019427965073 -0.005018622368489779
0.004003020421261821 -0.002404860242256719 -0.0048931795577374865
0.0030526138494709827 6.139757629887152E-4 -0.004021115903133328
0.0030375086067689462 4.075793313621606E-4 -0.0039307714821832955
0.002977209797179812 6.572144305210003E-4 -0.003899610040231659
0.003480631349218753 -0.002325944125400805 -0.004585124009823393
0.0032195560253656013 -8.250735217080143E-4 -0.004226060125410811
0.0032088939430279452 -0.0011554637144977646 -0.004314618080620296
0.0030539374324661354 9.575979152822683E-4 -0.004027447775703827
0.002943172018886464 7.52359847260203E-4 -0.003888633065145061
0.0029149937103870485 7.180753762751499E-4 -0.0039002336314362725
0.0030377680360982404 -0.0013107160455190538 -0.004231652841454682
0.0029474307655608153 9.460819015315811E-4 -0.0039182342734967795
0.002894858022250615 8.861271357072082E-4 -0.003881471101654195
0.0028338109888630687 9.392731155004198E-4 -0.003904223251492086
0.00293205883834942 -9.462599942740499E-4 -0.004114889428622781
0.0028475776861139604 7.290015577029825E-4 -0.003948313953977564
0.0032515013993235703 -0.0020844884404431687 -0.004391278030612429
0.003565934684711691 -0.002685479353260965 -0.004464866331675953
0.004073366589520776 -0.0028500945166986245 -0.004894463940662176
0.003411010101955926 -0.0016060082099778545 -0.0044399306710872395
0.00439189032132601 -0.0029079696111450845 -0.00490799910139706
0.00399671988303548 -0.0024758246952517977 -0.004717426248918708
0.004369846543126478 -0.0029213362685726364 -0.004757864611712552
0.004206381113391119 -0.002768974365108261 -0.004681622301668542
0.0041786816331754375 -0.002654324171962345 -0.004840558924206914
0.0028528898097431015 0.0011252542384354316 -0.003878871368595607
0.0028666775762150455 0.0010306302935714751 -0.003873542920920255
0.0028093277079752803 0.0011892796333453676 -0.003909155618625314
0.0029104963539832956 -4.910677722473909E-4 -0.004167492887982092
0.002913312091127909 -7.150425405045341E-4 -0.004098938435474738
0.0028117355351246903 0.0010768862080502717 -0.003904742342385993
0.002816954790922401 8.695789283798638E-4 -0.003933604702736498
0.0029535436902051893 3.8253791946506877E-4 -0.003975748440419899
0.0038735482462240517 -0.0027558292021681433 -0.004807394402571518
0.004385595086775122 -0.003123253155061694 -0.004781676269706682
0.0030809546575244562 8.956061206027022E-4 -0.004007006570089733
0.0028787855971103586 0.0012591217722796736 -0.00401123478775795
0.002852095927936209 0.0011935514802206963 -0.003912873024608868
0.0028038092016001593 0.0012475864195862114 -0.003979518066579606
0.0027682193631221987 0.0011207955994930628 -0.003985039934042448
0.0029261380775553415 -0.0012752551832667539 -0.004164192089423581
0.002771468425042702 8.561014649846196E-4 -0.004003198128028432
0.00411114746235569 -0.0031024759783098606 -0.0046885405150178675
0.0045437025268466325 -0.0031909188768817084 -0.004694329831985569
0.004513292743286627 -0.0030901851889873558 -0.0047377096247712604
0.004025228365121184 -0.0026814198574063065 -0.004538232745222403
0.00306942949426142 7.74840624678308E-4 -0.004093839576864728
0.0028199981510572862 0.0013057605939053832 -0.00408352043631079
0.002755393132716945 0.0011848973911417304 -0.004120273896348658
0.002711778983736317 9.727396825689586E-4 -0.00411408022896317
0.0030176268523606515 -5.779826623472161E-4 -0.004212488599309011
0.0037955569356911685 -0.0028631609598524167 -0.004597612883152444
0.0030857967336132574 -0.0013218017666876422 -0.0043416767454279425
0.003079445666743674 8.838472335431261E-4 -0.004334129650189706
0.0030903546607558116 9.995468269491257E-4 -0.004104996130288182
0.0030959663410297243 0.001185538858187194 -0.004326862520914578
0.002993009560104302 0.0012543370871344382 -0.004162564801649191
0.0028918671293644608 0.0013449915791610596 -0.0041861069554883995
0.0028739580866259016 -0.001015066267665048 -0.004195856674518319
0.002942110809748514 -0.0018573120927055085 -0.004291459097442946
0.0026748814947645835 6.692890167328042E-4 -0.004197493361410686
0.0037366729423790983 -0.0029361332572046886 -0.004483346791187721
0.004330134470190743 -0.0032363435219209657 -0.004698072087215799
0.0031331116478261188 0.0011061423580110336 -0.004696728146929486
0.0028221946391905907 0.001283668497688802 -0.004251090773269642
0.0027317039630672117 2.593410508934231E-4 -0.004176941006227733
0.0038655088388966116 -0.003145508168906549 -0.004395695818849521
0.004123343838065467 -0.0032757390589114557 -0.004497891292491052
0.0043758442062547444 -0.0034379954951272887 -0.004510374902959691
0.0037172163487850262 -0.002266049980850041 -0.00451562307539901
0.003140242057478194 0.0010307670062631635 -0.004983684848702844
0.0030394500632120324 6.885652645939081E-4 -0.004798080552898942
0.003080487773220784 0.0013729252727010287 -0.004479403570325996
0.00297965399555693 1.9031787466139213E-4 -0.004275441287767814
0.002867600680458946 -1.9022248229789624E-4 -0.004548955916828133
0.0028896356527973004 0.0013324956532118006 -0.004340298144269826
0.0027600868549973847 -0.0018776423442442964 -0.004312292501693891
0.002689680539791176 0.0010014947678190658 -0.00424207898845103
0.0026606112797124544 8.403758574433495E-4 -0.004238039921708878
0.0033380791194377803 -0.0025685759454732353 -0.004378013649878007
0.004554920975661375 -0.0035035768616230303 -0.0044942450263163155
0.004680907606353234 -0.003526514308640075 -0.004426276492179894
0.004711541156157039 -0.0035148882422168216 -0.004345287776233093
0.004291695964012043 -0.0030263846988835205 -0.004460853652321725
0.0031042992754262747 8.945566555595869E-4 -0.005078506555760016
0.0032084068170700523 0.0011656898865417488 -0.005170537779695696
0.0029872553934564877 0.0013507361318077715 -0.004441848455246767
0.0028849837868439258 0.0011606758256542508 -0.004585590705035877
0.002750777836741381 0.0011167617337331072 -0.004333755952745341
0.0026428311679673917 8.084975833095252E-4 -0.004352875665244912
0.003084993564306841 -0.0023180213519700447 -0.004367759946512316
0.0027476147492376214 -0.001011780002636775 -0.004365830908544925
0.002786087706158335 -0.0015547155705916106 -0.0043842614764802
0.003285199926661141 -0.0019739306842784126 -0.0043734297441457935
0.004563121459871491 -0.003266871503772915 -0.004484559906914671
0.0045067856972614605 -0.0033322037394260488 -0.004284709132747263
0.0031659462778384764 0.0013064998389271225 -0.004787881621932666
0.0029098343920787163 1.0443334652079498E-4 -0.00469997400840684
0.002676200737544637 9.101323849616859E-4 -0.004394828895439327
0.0027721346479929526 -0.0019663195787035276 -0.004253056087408033
0.002737763769884524 -0.001988505930089357 -0.004253110776091514
0.002619901129095522 6.327684362038652E-4 -0.004357011440886126
0.002546040014374815 1.8389043518509495E-5 -0.0043644206666575095
0.0045570312765138 -0.0036409459959039474 -0.004352357379922455
0.0023804239224370226 -0.0011258027989024036 -0.004475529737004661
0.003164250349750634 9.782663540286525E-4 -0.005320395053844331
0.003043804701474592 6.265986583569695E-4 -0.0053143688076538334
0.003001431447751601 5.811278953850782E-4 -0.0050363993847879086
0.0027767046920263495 -6.438572735401177E-4 -0.004978811135322327
0.002848455547751144 -5.590755774829968E-4 -0.004396550819271627
0.002735503387515619 9.416817478276095E-4 -0.004522607351912694
0.0028009389031903027 -0.002034703059484272 -0.004321674334535959
0.0025863019687066744 4.923722798124435E-4 -0.0044458210721291525
0.0030655809652071057 -0.0024293319578217185 -0.004525759703794955
0.002574017055702785 3.324921235793712E-4 -0.004376199297668285
0.0037382844238536502 -0.0032116492934499857 -0.00437350353748346
0.004390157016703926 -0.0036147631099183487 -0.004277958518299613
0.003768566138178415 -0.002784389960180379 -0.004271830754844858
0.0032281304219369117 0.001042521252558365 -0.005528887570501597
0.003126126734684084 0.0013913887312344102 -0.0047305009294851584
0.003082519695542224 0.0014031656953955888 -0.004629969626505133
0.0025541516794033905 3.9899319328862143E-4 -0.004486938997932856
0.0024474704256854563 -4.603571646518936E-4 -0.004440112753109526
0.0020518439076231843 -8.789388306770722E-4 -0.0045955506609328695
0.004833893732196964 -0.003806793977304128 -0.0040719463180371555
0.004652706594766549 -0.0036483000267360506 -0.004047686906599154
0.003291122448222733 0.0010446139131377679 -0.0057093605415900325
0.0031904986408643195 0.0012961412172653845 -0.005011240120374521
0.0029203999683619464 2.536398545128871E-4 -0.005071918466778457
0.003105795452781499 0.0013955456280734457 -0.004730445967172261
0.002994687475485383 0.0010458147923155983 -0.00493331526814599
0.0029358014022082147 9.324579094477257E-4 -0.0049337992397165825
0.0027752617670857758 -0.0013588980555155163 -0.004469200242805576
0.0026868384812845183 -0.001618081414592911 -0.004835870416100717
0.0027304401741182777 -0.00202884513777872 -0.004869592701510976
0.0027611438416168246 -0.0019168287589072983 -0.004524924776668627
0.0042297296548308065 -0.0036488829163652883 -0.004182347013291337
0.002379588538604476 -2.8747104789108034E-4 -0.004497277701921194
0.002422659669274981 -9.393937795085416E-5 -0.004487590886191834
0.0018523500554301752 -8.542574914991683E-4 -0.004672995769736167
0.0018205329091352744 -0.0010121769175650143 -0.004665010163913418
0.004738688672277885 -0.0038219524866111325 -0.0041359429281680755
0.004938904204388165 -0.0040308834013270565 -0.0038596577919561797
0.0030965398028184377 0.0012194168253449873 -0.00490690433777131
0.0029970342321257995 9.477810029610049E-4 -0.005035339572839819
0.002605073449221793 5.326874432826903E-4 -0.004598823657564635
0.002265636428046967 -3.227455068597976E-4 -0.004565276228150552
0.0021430722287514494 -3.516538261917639E-4 -0.004649981337167758
0.004631196816913166 -0.003976876238423019 -0.003958037565203824
0.0018050872064754146 -0.0011102701842066283 -0.00465959158211232
0.0023348460379762808 -0.0016152829463020142 -0.004456449353240579
0.004984116384133195 -0.004117450324106901 -0.003749508992553529
0.004912797451940728 -0.004076688923002656 -0.0037351861884601556
0.004322849936003372 -0.0033050311422504037 -0.0041648797724225944
0.0033271109757090026 9.394044961270602E-4 -0.006047755496844973
0.003256943793829681 0.0011965467221688657 -0.0053086152689894054
0.0028198173311648304 -1.3108790637139114E-4 -0.005348488288078424
0.0025727758538221786 9.80534039604646E-5 -0.004994029708098594
0.002457241783111171 1.687100737210776E-4 -0.0045566735534411824
0.002283325268079695 -1.5950882240037026E-4 -0.004628008056514431
0.0019333646073228458 -6.247270783887958E-4 -0.004678821824535827
0.0016735343879820746 -9.287608583806142E-4 -0.0047100068810956505
0.001597354031609103 -0.0010599177448266108 -0.004710905959991461
0.0017079992496153167 -0.0011117684671514496 -0.004679117758604889
0.00194978323359057 -0.0012193872073772173 -0.004595884889097959
0.004901468088560411 -0.004107058696636753 -0.0037869891990180865
0.0019635782418118545 -0.0015607848284459511 -0.004535011691296654
0.003361064897620696 9.352269312617805E-4 -0.006154159971319587
0.0027620190358128537 -4.4678817941096974E-4 -0.005482689241915704
0.002796417881140663 8.073727923455872E-4 -0.004775713474042155
0.0021164743703130243 -3.3803152035463224E-4 -0.0047151865311379606
0.0016079064723278056 -8.249578593425843E-4 -0.004733794084031288
0.0015431008554582081 -9.334666094106868E-4 -0.00473341535146371
0.0015989415931793312 -0.0011454575212740317 -0.004693568627105942
0.0018403248502628547 -0.001644338121036572 -0.004537715678460983
0.0028770576626521173 -0.0022290222540374298 -0.004306680819827621
0.0032646398899112694 0.001063749771060004 -0.0054161267299319416
0.0029107751596965242 1.993923069285306E-4 -0.005476679850692431
0.0028898471968405513 6.315471360587468E-4 -0.005069370395893946
0.002637395776958964 -0.0018687998483234893 -0.004999051407896409
0.001489335668245037 -9.459761818522879E-4 -0.00473554386016602
0.0015261813566562706 -0.001096727398677221 -0.004704419367207841
0.0016883438131816725 -0.0013548674658606205 -0.004624333239536536
0.0033476485168480587 8.026189387680513E-4 -0.0062241951439773536
0.0033781827888479106 8.70067334631318E-4 -0.006128533229280747
0.0023158190853346354 -8.76785741441864E-5 -0.004790324451912204
0.0016557647048851063 -7.4989148127375E-4 -0.004737423322648876
0.0021352396503235703 -0.0019755625440030537 -0.004423890763284127
0.0032124916560593 7.219630043242723E-4 -0.005941459995681696
0.0030017761423040855 2.157532913235664E-4 -0.005901928809198182
0.0033545682976287086 9.267338760998911E-4 -0.005823933847660665
0.003234166678132283 8.199636524213247E-4 -0.005494709885652379
0.002739082057919877 -9.188078470423127E-4 -0.0058363091958394606
0.0027501400772976603 4.0370490060122924E-4 -0.005006693510022414
0.0024099253431622975 -2.22450150943708E-4 -0.00505114562594357
0.001956571419753522 -5.352572261978404E-4 -0.004817404086114198
0.004444844846864295 -0.004014437688343194 -0.004048305679543421
0.0016683593196883911 -7.55070132401559E-4 -0.004761993233599123
0.001521312295392792 -8.656360680996993E-4 -0.004745348093579591
0.0014229224772605601 -0.001101487277222857 -0.004708757742869789
0.00305870638658214 7.105556777264622E-4 -0.00526270848620314
0.002637438121816696 -0.0019267934901884987 -0.005044526923404747
0.002714911220579574 -0.0018007066165264523 -0.005291743452795295
0.002967255511439658 -0.0024332838195239305 -0.004974847876175233
0.0035467705215444425 -0.0031541839241548846 -0.004871499926618292
0.0017075606568280927 -0.001700156908090792 -0.004539137858778462
0.003126327386075887 1.753372637036416E-4 -0.00634259827243989
0.0028387563237943603 -2.2555530065930516E-4 -0.005766640957974083
0.002741002877539721 5.200807370197142E-5 -0.005229963327464416
0.0021913249104132332 -4.089390763972262E-4 -0.004969360474406657
0.004794295151249606 -0.0044059806088065446 -0.0036068969085616457
0.004897291782916562 -0.004208223617745751 -0.0035428979695987075
0.0034207695709953813 5.487260200111727E-4 -0.006444653574508338
0.00333919153973477 4.1963945816095056E-4 -0.006484879824183495
0.0032349164976974913 3.482616409498747E-4 -0.006424513728741449
0.0030212694446971537 -0.002566463455054396 -0.005371176279337079
0.003479210215654791 -0.0031528398989102485 -0.005229676116715618