# vtk DataFile Version 3.0
vtk output
ASCII
DATASET POLYDATA
POINTS 1139 float
-22.15755259514414 2.1047948448719382 3.5352037795363866
-21.755050115864744 2.4467588567980147 3.4119593238019563
-22.439813326820207 3.12627700953849 3.61194470206942
-21.684839772713257 3.151997619899503 3.3259870914422764
-21.67945549167869 4.241417335923691 3.4636473461636563
-20.607604485997445 5.270096808689514 3.664334988938189
-22.66508825274071 1.8919588787604562 3.9547829104321712
-20.000819918801096 6.968350268708331 4.493482171384755
-23.90634720401559 2.841077104644221 4.836066246282545
-20.50393454254299 6.277374749811763 3.7839739497082823
-22.885859898988475 5.396817230191564 4.168379912706638
-21.618034426527622 5.611000299353295 3.580858453166666
-21.91157952839847 6.539838138806939 3.8258791848950566
-20.614765639279856 -1.1492860370464155 5.474088980500448
-21.544373250886196 1.1639591915632925 3.979499915484877
-20.843250981602164 0.23146205719964252 4.3701700440585745
-20.24559696920321 0.9676674936748193 4.2520775689780805
-20.72110863306967 2.93210711956927 3.6209314220367506
-19.27698946960939 2.2793959524020604 4.154447075138446
-18.849098543274163 4.288601541030877 4.286051788885446
-21.00954626407753 6.457399642675697 3.759576199030351
-22.50715104415478 7.1768787121375395 4.236799307294065
-21.571934882262198 7.763876817638884 4.3545224495089165
-23.42057551572262 7.483827223968241 4.964477106657216
-23.27188891845985 8.43104271320766 5.132905852898745
-22.7499484986539 8.297118622363554 4.828537336177075
-22.139563551191742 9.086313785359387 5.236343284550863
-22.969282697164253 -1.1107644871278033 5.615181524296525
-22.95888805496623 0.4774778468074986 4.829739078302779
-24.67334301619888 0.6566410622594043 5.8125742712558655
-18.281624588741526 2.676926703798658 4.472448711874015
-17.923472043160224 3.5511532646991246 4.503951866252832
-20.889389509204634 9.14714495976099 5.402263968243742
-22.635005021716285 -2.4597220418547314 6.489576963721243
-18.325808979059925 0.8666582235691037 5.082203745979025
-24.43160649177722 -1.48707573722259 6.724261728822672
-23.84214632497839 -0.44701225530455607 5.545759738560331
-26.51091267288299 0.3151709037439393 7.63023927234866
-17.197066932112186 2.704408631167049 5.240332427281175
-25.853001570024457 2.5904069526415645 6.463236757208914
-18.037783027411127 4.010788890044497 4.416347181611841
-17.510648080962607 4.283867672727034 4.988964393598727
-25.377704866600563 5.891877647637548 6.372455567260257
-23.633303206818663 9.148202853859603 6.145277547469642
-19.339404598089917 9.206848436293424 6.236989869743563
-23.045496751800265 11.167568443012705 7.282546990060179
-22.004539326724924 10.370325024681193 6.321982779240509
-28.315251676949195 3.346684530852087 8.54772760410477
-15.797042405511212 4.454217275006389 6.61567144963914
-17.664615015145948 6.766709131974184 5.8835866727875485
-24.441384403988483 11.241628061104358 8.32004955067102
-20.63716718335692 10.622492682609082 6.775071290750552
-21.26844120482889 -3.9614783899493307 7.38744259642657
-16.211023881510073 -0.7823991198080131 6.477626770414075
-15.976002754519122 -1.2189854855642042 6.679182555510494
-15.6547997806119 0.6879176644681947 6.795052750668128
-30.245329414102205 3.5546066420215854 9.832203901838266
-28.25560237403686 6.837842744662537 8.878386959137181
-18.002691504619534 9.358917714749605 7.1504001323129165
-21.94620717446572 11.937336674917558 8.014830660672779
-23.31911913197477 12.087362103159657 8.290583561481355
-17.88969323941944 -5.0861304611279285 8.188548267228756
-17.09084399210495 -1.4797193449488948 6.450509580577604
-14.929353468013225 3.1959148916412263 7.406020614440372
-30.693919205365006 3.1564557253919796 10.15083471489087
-15.478264171945963 5.6100873707914545 6.8793306134302155
-30.07298489085154 5.364567897461481 10.092735048011262
-15.885909836215784 6.474277083326153 6.974800864690293
-28.90607378796126 7.7066569643201985 9.561335955797292
-26.197206578172896 9.060505534522227 8.29019970921968
-21.427091947299534 -6.409711785898921 9.479997741294845
-23.57046605033371 -4.000146922450477 8.182948367585169
-26.221484897551964 -2.7031728898752845 9.086684670645461
-30.235257358675113 2.458770067093265 10.09930578658834
-15.297462471677624 7.3029170815327715 8.275929541975765
-16.68515955355735 8.486106806418354 7.553953724368793
-29.434724552057354 7.296047693819758 9.954513781216113
-23.92897278149699 13.046976516711347 10.004924306639921
-25.059483113307028 -6.193577626754711 10.92363291825757
-28.926970274993298 -0.15016030134305222 10.14613087925323
-31.08465315124229 3.557872205549048 10.881022097615126
-17.516404920664563 10.046026716326754 8.130692749892285
-28.615868415298714 8.735951796552502 10.14578299322064
-19.384667919817783 11.469428094184613 8.618776000255744
-26.453587180201776 11.687311988963565 10.595486628003439
-25.338917976188974 12.99124276945451 10.691836507420208
-21.67456254502667 13.1361727542655 9.659234938793087
-18.834954290461464 -8.51414040029034 10.427951361870042
-15.068833352440851 -2.8378723765339107 7.644386358288316
-13.297430019467438 -3.890596272691218 8.461130212198915
-31.174793794589124 1.5172587929413879 11.772519547329583
-15.093783531231686 5.72655839307265 7.46261695386619
-14.77811675961573 7.862525124136085 9.484889033728775
-15.87326340889474 -8.870796141823295 10.608211572162876
-12.503003176696382 -4.216542324797575 8.75311045804422
-11.981026838556652 -3.721465922742067 8.87987979946682
-28.276552364440093 -4.080913874504464 11.804748827761822
-12.96603290409439 -6.23620417133141 9.34465608856471
-11.711992059514015 -4.867873272061799 9.091814939450694
-10.793273632225006 -4.935988704293647 9.522902322102224
-27.190040631254465 -6.24171541269116 12.222017213733244
-11.104468184924393 -3.6133772604278978 9.524095450909456
-30.829513145132353 -1.4467958856589263 12.973687344830442
-32.48547994216849 1.2650161410764376 13.898649476297244
-30.578898344966873 7.484813714590601 11.560158912617561
-16.484527641794802 10.108235346912176 9.686019923077438
-25.557495171751906 13.46920443299699 11.664103161569043
-20.87888530357469 13.759406796658086 11.057414140379635
-24.17340203934934 14.39952045523139 12.473988095506819
-22.298282702505766 14.640340792665945 12.4166027722388
-22.54515978994608 14.094880014805966 11.05648854382453
-11.168100155161609 -6.5136829393134414 9.5507057189644
-11.348752123788332 -5.8118274833993375 9.32551154904936
-10.412364430025137 -6.8050023811605245 10.015913697431333
-25.2674917519221 -8.109405756614102 12.672892450743035
-26.307257239462896 -7.11127775828112 12.247597160983549
-10.4938848202331 -5.911714611490131 9.794946189721832
-10.559549128344377 -4.408006072734657 9.710699141264392
-12.873280694546013 -1.790322860645142 8.677133214629945
-31.45894982024165 5.323961734649506 11.721174123038404
-29.615071773289085 10.272000093141376 12.763023458058333
-17.519859410398347 -9.703537668438683 10.916997126361926
-11.006281930060032 -8.177507795799475 10.88800147833846
-11.038917046090408 -7.177534014268243 9.969938794350973
-10.085557877515104 -7.486441542734568 10.755492037561837
-9.747383614231914 -6.345218321011264 10.688133856399041
-28.46390163151892 -5.8386110488082235 13.053979151596671
-10.022423791357737 -4.4264386251151775 10.447266082707609
-32.159785891359576 6.438292925757758 13.223980667099207
-27.468314028080144 12.982265677693508 13.42873803087232
-25.81656943595209 14.101828107531668 13.06694262448042
-20.96095836869742 14.471934212370012 13.15488726456418
-18.55608531503843 -10.160081359795456 11.589327069027494
-9.819769505429404 -8.351373771463319 11.724575416489667
-9.097141014014188 -7.302274501189622 12.04218117959985
-8.960463345164502 -5.530211146046962 11.811347084225213
-13.574818978112425 4.44578669660689 9.232334222705802
-32.462006031861506 3.667907431489769 13.223468192354733
-14.20699325736637 9.031245014863194 11.201246656223296
-17.84355090877329 -11.385778778751495 12.990563713384516
-16.89510806463823 -10.467871170785653 11.649187316965335
-14.85328704917765 -11.213243008740017 12.882163466120526
-12.409469691536227 -9.580467227609857 11.908871986135559
-10.281172930522356 -9.33483857013442 12.45284961975363
-27.50242607664594 -7.305526523756546 13.564064212767402
-30.559482088847556 -5.238301143290717 14.95856804549069
-8.891781264842049 -3.4943419911440516 12.24467308701701
-33.05100016614292 2.6302530940464757 14.2491025041704
-31.516027571770742 8.437849548758312 13.459636843487461
-16.082659415133065 -12.747038948524034 14.688796764136203
-9.177128071203704 -8.74293143982943 13.115064947567706
-10.310793214928102 -0.584009883172357 11.19725549725375
-33.60667588998731 2.9808334463472037 15.80710823674833
-33.09873262021157 5.624629929116356 14.758863664655584
-32.65842940359325 7.77086396786036 14.874409046858657
-18.858985993581225 13.004719506229097 11.888379609592306
-16.862687194779344 -13.627318371055837 15.879508863839918
-19.165614354813744 -12.820170756497555 15.275370226808388
-12.058076153463201 -11.476230071746988 14.021299713465881
-21.783092195270648 -9.730527162729935 12.682625101339518
-23.855847850408487 -10.741678192875854 14.887194570176336
-9.52058228407492 -9.644807278487448 13.702359128703607
-30.75845170454457 -6.749846355327865 15.95619149747608
-8.291948319398506 -6.221254784145378 13.114181544624204
-8.297577584052423 -4.911577221399193 12.945181751781297
-32.687591729975864 -1.5945953393079584 15.788071315844368
-31.66154607684131 9.711526092535241 14.999823785470769
-30.07712449478247 11.764935971698534 15.373838872042839
-28.31771394997094 13.45678088426736 15.874227993110884
-23.176975453027836 14.934226495102314 14.594369125300705
-17.855592301827283 -13.826848826134304 16.30756252636749
-14.9984177936671 -13.707188374268824 16.617673527281923
-10.419306501990837 -10.519534227691764 14.126448013635548
-8.711164743432553 -9.287990267360122 15.54429360771764
-8.36958372007575 -7.618647538402918 13.870245761772775
[...]
POINT_DATA 1139
FIELD PCA 16
mode_1 3 1139 float
0.0031310460293771797 -8.635205568294733E-4 -0.003968941672977945
0.0031014887042675843 -8.966755069181766E-4 -0.003987317455507149
0.003114624122374663 -0.0010723144967263961 -0.004115516870802686
0.003072956179511641 -0.0010203600450876848 -0.004072624692151565
0.0030499248572889485 -0.0012144912224877516 -0.0042178650891361545
0.0030019384942693277 -0.0013098546603695423 -0.004276120891213555
0.00318296427335048 -8.630460630734223E-4 -0.003970851638365387
0.002972371827316814 -0.0015421257638786232 -0.004435094832853985
0.003255399971077412 -0.001139618315638379 -0.004147680675538234
0.0029746232986321993 -0.0014753243610124993 -0.004398496458312156
0.003098228989372772 -0.0015104419100953018 -0.004444695329747974
0.0030142817869899946 -0.0014520143790100481 -0.0044015147598106055
0.0030088072689970005 -0.0016322643006258487 -0.004550699825015418
0.0032725561689102606 -1.5759636676871243E-4 -0.003606906945887993
0.0031694846309918805 -6.435684175729909E-4 -0.0038333512258576894
0.0031964363738075747 -4.1919742231808567E-4 -0.0037051616436689625
0.0031481513086265766 -5.11081629584689E-4 -0.003749945118634986
0.0030730381914027185 -9.036671772234862E-4 -0.00398667842569846
0.0030783581391507888 -6.778337679972362E-4 -0.0038282467556434896
0.003015393140074922 -9.990674254745273E-4 -0.004021627839487011
0.002981539645112385 -0.0015467096518429015 -0.00446704101573804
0.0030337120908490584 -0.0017827926408076238 -0.004675057179463237
0.002993333499789028 -0.001802501189117394 -0.004673869819912964
0.00310427519406083 -0.001903570597127999 -0.0047479276975281185
0.003080558036346722 -0.002044332324115574 -0.004866199071896788
0.003046666424871726 -0.0019821554564286893 -0.004823138972708519
0.0030272512017491928 -0.0020537905478763053 -0.00485406596295089
0.0033914242789182918 -3.391793955598581E-4 -0.003652485096766964
0.003293952890492757 -6.27597980840973E-4 -0.003822436969147326
0.003409972943396763 -8.164428595783431E-4 -0.003905881483767814
0.0030500778152898534 -6.769239379390876E-4 -0.0038164617819155945
0.003021147179854641 -8.051879871335122E-4 -0.003878462598389004
0.002985828899767563 -0.0019589040279334247 -0.004749296033536565
0.003460328614149517 -7.55229010959821E-5 -0.0035408942670050662
0.003099154249346399 -3.604083925456717E-4 -0.0036850964422962384
0.003511497376714301 -4.1548104767221827E-4 -0.003674316376748501
0.0034017816166981457 -5.318527285744584E-4 -0.0037448961825573305
0.0035768020477494125 -9.67497955871788E-4 -0.003923961079092373
0.003011282457350943 -6.080172236820311E-4 -0.003803492090694714
0.0034339465429984975 -0.001285331387455756 -0.00417783857597303
0.003012925474372087 -8.93642857422546E-4 -0.003927464699019585
0.002988345759045458 -9.010811831938582E-4 -0.003951973528150386
0.0033210562376551496 -0.0018114953730999747 -0.004569021901320578
0.003141336761504187 -0.0021837128290963475 -0.0049086008609819775
0.002954915574518202 -0.0018422814996247423 -0.004600922575640608
0.0031251475209877143 -0.002438402428050192 -0.005051073718263871
0.003045639539349206 -0.0022346008060277387 -0.004941117542820864
0.0036285898739220656 -0.0017027141109073273 -0.004304687556153904
0.0028969832297447277 -8.211560316935896E-4 -0.003975648183594583
0.002937918832605832 -0.001324062700395363 -0.004241147836456567
0.00325316032803442 -0.0025766902665038155 -0.005054412459497019
0.002994816802443527 -0.0021637599576595887 -0.004840550948928776
0.0034691126256467526 2.917998722970345E-4 -0.0034504442292258857
0.0030596476006961733 7.108220952556425E-5 -0.0035362384771943614
0.003052589054569751 1.5909923183108943E-4 -0.0035170755324011455
0.0029635519387531434 -1.6826690558510672E-4 -0.003684698910918627
0.003778432399074624 -0.001976617838453504 -0.004332887994263624
0.0035834996644143373 -0.0022686003375679523 -0.0047040038306800655
0.0029185321898025315 -0.0017643857931491902 -0.004503486734785354
0.003082777986657442 -0.0024669021343970486 -0.005007684875837897
0.003169628002957899 -0.0026004212608915773 -0.005099597714586495
0.0033144352940940053 7.206575742836186E-4 -0.0034132471399282464
0.0031229262627144173 1.3619432580256076E-4 -0.0035224528911734177
0.0028500585546221394 -5.673733013172561E-4 -0.0039006523506630334
0.0038180382042109886 -0.0019711738159996213 -0.004283560598746788
0.002877134097923175 -9.876656581736065E-4 -0.004049104799090835
0.003762784501274811 -0.0022573797006569894 -0.004509568613798496
0.0028747008064100767 -0.0011562751376295213 -0.004144549536438244
0.003642041424620826 -0.002478760867549856 -0.00480309826107415
0.003397194078075957 -0.002409596171457349 -0.0048884463467548135
0.0036081893223023427 6.876647911831057E-4 -0.003406868931385908
0.003603816213807042 9.069534251678342E-5 -0.003486234084054511
0.0036895891440607664 -4.3402787860504904E-4 -0.0036332946016565696
0.0037967261928747503 -0.001806277466265315 -0.004193578532139616
0.00279301148385155 -0.0012712296160897773 -0.004244476223045137
0.0028682095607777368 -0.001538381025625874 -0.0043580929391276646
0.0036982218100101187 -0.0024833601108487403 -0.004734492030724076
0.0032643319130064513 -0.0028122807155635124 -0.005076989335662446
0.0037723685439301556 2.685354435382259E-4 -0.0034393275344377513
0.0037637516771700627 -0.001222270795361266 -0.00389661312482841
0.0038594029294329196 -0.002112465934331762 -0.004276942164393139
0.0028818931176290102 -0.0018465087175265121 -0.004536034456623584
0.003640329997755569 -0.0026279947234966773 -0.004821458524814551
0.00295914550152255 -0.0022104536392354404 -0.004755168911441132
0.003481825437858383 -0.0028624008624787037 -0.0049829451400244945
0.0033912858024240326 -0.0029348852797552085 -0.00508473426388617
0.003100806286365865 -0.0026341656324509115 -0.004991885820641788
0.003587700887320515 0.0012838340587615585 -0.0033749501915587904
0.0030121103484121075 4.7721044636599874E-4 -0.003480329338153318
0.002879574391960733 7.390731826051115E-4 -0.003455194067594538
0.003890363862007755 -0.0018318855973474425 -0.004012639397522491
0.0028295048749404704 -9.946744110330846E-4 -0.004087801729844315
0.002704324301666825 -0.0013516948872187926 -0.0043207670974482765
0.0033852403058276044 0.0015339471446562877 -0.0034097983852693537
0.00280491178232358 8.240987557823934E-4 -0.003450704127041816
0.002727293357761969 7.438290807742757E-4 -0.0034959472142177647
0.003817825303844789 -5.174157938099873E-4 -0.003549271056019873
0.002911826853309713 0.0011593898907082385 -0.003403918664750021
0.0027238405666807374 9.558847300762356E-4 -0.003438063159389963
0.0026019705080526797 9.719322201535184E-4 -0.0034868380509619854
0.0038453415710631616 2.1825365068922344E-6 -0.003407942417208931
0.002609322991160627 7.201261462428482E-4 -0.003587413642967286
0.0038741828317630515 -0.0013546264018511433 -0.0037399948251570394
0.003979479608279705 -0.0020584476541839498 -0.0038869076673136993
0.0038433738692704774 -0.002691771162844754 -0.00460548784479981
0.0027883626386938525 -0.0018204322463919941 -0.004502474227794851
0.0034399167734859206 -0.0030495006003569414 -0.005025589347034254
0.003061634499101983 -0.0026974577243431283 -0.004901267764784872
0.003345649257895014 -0.0030884853683177866 -0.004966061677585406
0.0031868715680726236 -0.002967923764534077 -0.0049266956506963475
0.0031835768810706804 -0.002864045526989132 -0.005015953289091857
0.0026844968967231642 0.001259379603177581 -0.0033813394987708576
0.0026947285230617315 0.001131112300039385 -0.0033993548638219665
0.0025911246692033527 0.0013121650209348952 -0.0034252509833807075
0.0038115865282985443 5.261433423633776E-4 -0.003442358119918089
0.0038418000687697814 2.639617132154705E-4 -0.0033876833401111847
0.002580308761888627 0.00114866241421215 -0.0034554012761402533
0.0025588282303268 8.693039052512055E-4 -0.003552161963245416
0.0027649092142609244 3.6311446726412284E-4 -0.003632985383154416
0.003907438895765415 -0.0024683581178417215 -0.0043926478877436125
0.0038165362704608075 -0.003047768857249947 -0.00468868641098529
0.003599891530996081 0.0016208575769150549 -0.0033558452600461063
0.0027549946694706297 0.0015389718734532783 -0.0034819415939972755
0.002692508135914126 0.0013747547901129423 -0.0033998872140451153
0.002581774349863974 0.0014173349906479822 -0.0034955942157234013
0.002496473435791615 0.0011990149364190044 -0.003563259350287279
0.003842365240206338 -2.756264713115432E-4 -0.003442841728079416
0.0024873877626451725 8.46560875096078E-4 -0.0036617795816248993
0.004010170829175813 -0.0027841735224397143 -0.004349743576575382
0.0036614968128647557 -0.0032340928788152485 -0.00480343231893413
0.0035049711980802306 -0.0032078340917337618 -0.004925481604521333
0.0030811987844329564 -0.0028882145961949615 -0.0048091874506425054
0.003681459271626694 0.0016104609759734875 -0.0034162347718522516
0.002606503177402786 0.0015492621334266953 -0.0035963215802300294
0.0024672750520768967 0.0013180362258112795 -0.003719057671027105
0.0023850542474189605 9.842467948128547E-4 -0.003802152316960679
0.0026623786790387362 -7.486960628999768E-4 -0.004114986346379982
0.003998419306813679 -0.002401496993970459 -0.004112413653610239
0.0025654346147690023 -0.001550817917203699 -0.004449868550809619
0.003686149604440785 0.0018464520908129864 -0.0036197067056551414
0.0035983117422209387 0.0017899251190082919 -0.0034387164814262913
0.0034592714807071363 0.001989372376391526 -0.0036531715027358232
0.0030576654559763133 0.0017572305819578923 -0.0035771580649675023
0.002755476731127032 0.001714630966205766 -0.003662599531201021
0.003816900728782725 6.92505490783315E-5 -0.0034521825726229367
0.0038023069859558964 -7.849799694853268E-4 -0.0035383654978229677
0.002335581687576395 5.816726346884346E-4 -0.004008924393123919
0.004035080962921056 -0.002366568042021967 -0.0039529953585269425
0.003987917710405195 -0.0030153005038781196 -0.004485766905246039
0.003663238584302653 0.002174821189112954 -0.003939025530636086
0.0025836856343862276 0.0015522678418845217 -0.003808320189228249
0.0024247906424046716 1.2385422208758369E-4 -0.004031561755310338
0.004079895605935464 -0.002573820895018425 -0.00389767605951277
0.004099896852504703 -0.0028509668949479555 -0.00412670861342031
0.004110540941698658 -0.0031176033330224144 -0.004267612536587447
0.002911593967920885 -0.0024896109032925802 -0.0047163539066653135
0.003758301264835072 0.0022573796233343415 -0.004164939648437393
0.003751211983121982 0.001902280701129255 -0.00399177825634691
0.003202796957157038 0.0020885143242444807 -0.0038433904141180466
0.0037382308346296587 0.0011686347969822861 -0.0035504541331011024
0.003703374361788456 9.951603242638438E-4 -0.0037467540004962967
0.0027108756927205577 0.00171100867243383 -0.00385757355750921
0.003724023182078072 -6.180104128118549E-4 -0.003505741796154836
0.002345670110074891 0.0010339223362861663 -0.0039700679697356935
0.0023029687751269013 7.934708752480393E-4 -0.004029453192616235
0.003916071660651303 -0.0017303394495802762 -0.0037060639005753486
0.004059597063712658 -0.0032881756122419485 -0.004383475274689364
0.0039509208144130415 -0.0034234329263749612 -0.004468855377671426
0.003816853439763062 -0.00350437444046828 -0.004521611390521316
0.003299521950344541 -0.003188934202236585 -0.004759970433671974
0.0037761607376833838 0.0021827467943563205 -0.004232555574056786
0.003672834907242003 0.0023332343379602423 -0.004348318069514804
0.002923404742267658 0.001875793872488758 -0.0038962800050678674
0.002668681687265436 0.0014922791993814458 -0.004206447267628951
0.0024454130554276685 0.0012656207762760054 -0.004009394778566145
0.002288592391012943 7.615631183833664E-4 -0.0041935768973371135
0.0038242723205464554 -0.001310047809339178 -0.0036183946263757595
0.002325407555952644 -0.0012830553079472807 -0.004511219324402417
0.0022929094923972047 -0.0018510943338811894 -0.004649922791530516
0.002639497315721858 -0.002220450900251228 -0.00461384999941788
0.003566887164630081 -0.003357683240000243 -0.004726795195272216
0.0035236080778480445 -0.0034362885680912316 -0.004591700792548472
0.0034531003739813704 0.0022406508315012375 -0.004070963484096524
0.0037063073422453374 0.00132706792835891 -0.003882336762143918
0.002337737887932097 9.342799161169532E-4 -0.004195986614657856
0.0037544515320423787 -7.124737537952413E-4 -0.0034601189410697125
0.0037403080017150633 -6.982134227814074E-4 -0.003450773252477999
0.0022668503881448586 5.203163853010442E-4 -0.004257645012256536
0.0022177792971786814 -2.265172908170558E-4 -0.004403563000788116
0.004164382789006661 -0.0033410880617940984 -0.004190389606032542
0.002009067189418107 -0.0014796259427162354 -0.004754927698830539
0.003744874262905364 0.002266675695807317 -0.004441623842102978
0.003706368220741912 0.0019583903417868575 -0.004411712009505477
0.0037398060892245718 0.0018978526044502396 -0.004181275431860548
0.003543483527336871 6.368883369046617E-4 -0.004069096802954236
0.0037362346165858997 5.977118897602219E-4 -0.0036132570016027023
0.0024329032002907416 0.0010492478238742417 -0.004304809197539841
0.0037322535019730014 -8.055104290101459E-4 -0.0035170301833824342
0.0022413633480963184 3.3652672702332405E-4 -0.004424462117754803
0.003749533353074023 -0.0014084693571958266 -0.0037231870267610753
0.0022358408436924052 1.3874700768143575E-4 -0.004363584352726158
0.004059698994444186 -0.002548344172888032 -0.0037595437239309874
0.004195091847046829 -0.0032269495904995813 -0.004006113949671154
0.0029888902846886153 -0.0030000290500700947 -0.0046158252438166705
0.0037105120826215828 0.0023101131501825152 -0.0046289384608926174
0.0032075377495654825 0.002163192161292192 -0.004090732971492722
0.0030946284264158136 0.002087926628092646 -0.004026254425494297
0.0022209313650533693 2.128196610876322E-4 -0.004510342678388289
0.0021269004751165166 -7.776602982116905E-4 -0.004594312743650426
0.0017797591391084222 -0.001306838535149843 -0.004924587998221293
0.004049794233508934 -0.003697679425464384 -0.004199374927550792
0.003786711512328213 -0.003673812494171915 -0.004308180884577314
0.0036647980888014618 0.0022544912108214614 -0.004813320509625949
0.0033279549482273757 0.0021580942782508904 -0.0043331668423315425
0.0036699960940470653 0.0015816356313264478 -0.004192281612905993
0.003113191115372884 0.0021069129252134344 -0.004125218833951662
0.0028177215547168393 0.0014633697722540653 -0.0045664135109001296
0.002720704683802232 0.0012438977809880723 -0.004655434074623215
0.0036769156290722086 -1.2950507744015143E-4 -0.0036446111480706047
0.0034670042457762506 -3.5067852186569345E-4 -0.003911329816386667
0.0034447023703315363 -8.201235424729556E-4 -0.0039323281191490055
0.003621953932697686 -6.759381304795658E-4 -0.003671599494073847
0.004238025448356944 -0.0031842702778591887 -0.0037795263750297035
0.0020698600570775434 -6.32011002383609E-4 -0.00468619818763366
0.002110791928085524 -4.046751348819581E-4 -0.004634947481067783
0.0016356995661328086 -0.00133615107704428 -0.005053793377656107
0.0015858463568679151 -0.0014844695062615444 -0.0050528823833338
0.004185726371651684 -0.0035874841752854087 -0.004090806950852377
0.00422914191206171 -0.003852612062154294 -0.003944640209442478
0.0030606907579253956 0.0018511852090628757 -0.004365868282595354
0.002804372228323481 0.001327840954504044 -0.004717662643911284
0.002305009375066185 4.309402743907047E-4 -0.004581471892930213
0.001991522301621174 -7.101597153141669E-4 -0.004810925998073675
0.001913845016239248 -7.878135920508274E-4 -0.004963025530407738
0.004327616936565858 -0.0036752422738693335 -0.0037709295718447475
0.001560657675167824 -0.0015774051806082177 -0.005055065908060832
0.0019470682227130801 -0.0019947578559782837 -0.004838430511660791
0.0042716626648056245 -0.003940910427233497 -0.0038481736352361092
0.004200121538890279 -0.003958195879245839 -0.0038684131118440226
0.0034317451137484954 -0.0034372171679910224 -0.004500687397818161
0.0036948229544575737 0.0022213656518049987 -0.005074052251183711
0.0035259334720443873 0.0022273710631368062 -0.00453415772671991
0.0035259735768208597 0.0012319703188284597 -0.004393107606873225
0.0024078175030992893 -1.0183761876602933E-4 -0.005169524821045216
0.0021598003025256824 -9.34543692316919E-5 -0.004675569267384948
0.0020291645774531 -5.359691209962013E-4 -0.004877925377436583
0.0017515547512124985 -0.0011192683227355957 -0.005053269699538155
0.0015043483079915775 -0.001456487646040886 -0.005134683819825215
0.0014309156276048735 -0.0015901782453346166 -0.005149776463837709
0.0014982199021798728 -0.0016069505287545072 -0.00509721734652924
0.0016700194038158055 -0.0016615318785895491 -0.004982295789038047
0.0043046173507989205 -0.0039061902833414713 -0.0038099291000494246
0.0016764172193203452 -0.0020095155690950514 -0.004975870727243497
0.0037028206233684297 0.0022159935752311937 -0.005169258236332208
0.003420072862186513 8.913032677716491E-4 -0.004480614938906943
0.002537646475281675 9.448764952667843E-4 -0.004609481254490415
0.0019292366750389871 -7.881081424431591E-4 -0.005056140780099141
0.0014966190112150725 -0.0014045585250800174 -0.005191479936176889
0.0014270992609034423 -0.0015106133734368024 -0.005196503884638941
0.001427656642559128 -0.001672521049338675 -0.005138873437611895
0.0015993578509850993 -0.002126616328317975 -0.0050172040144347224
0.002350243271948964 -0.002547669578662341 -0.0047131803630387535
0.0033772634782795654 0.001914069443568574 -0.004738693013249813
0.0035781769916322145 0.001569228284155428 -0.004516692565521109
0.0026969017115346704 8.058918777283903E-4 -0.004930669652321054
0.0033457637542139685 -6.096546523354216E-4 -0.004023160705270446
0.0014138957458746514 -0.0015580444698741003 -0.005226138117728304
0.0014091680431169385 -0.0016703080300446134 -0.005179626541501746
0.0014963530429269077 -0.0018687389387697624 -0.0050857860250509875
0.003695371152658444 0.002073378334351545 -0.005220235460168486
0.003687064806534153 0.002071516848610027 -0.005183621529372639
0.0021332174408334606 -4.4038256980204817E-4 -0.00505748872911469
0.001563382471051361 -0.00134166695127791 -0.00520225833839351
0.0018293101092891047 -0.002419189709261213 -0.004918779163029537
0.003665558184451247 0.0020257052437987907 -0.004949397436544568
0.003535802045920403 0.0015507623328691353 -0.00486406317518618
0.0035856319635716462 0.001959909461163657 -0.005008389262365031
0.0032441365443146423 0.0014623364531453427 -0.004962424421214049
0.0032563794834575034 3.1756614375642785E-4 -0.004732973705390379
0.00254897815012868 3.9132164993210556E-4 -0.005018852741928066
0.002327155656531992 -5.670308622856715E-4 -0.0053617289282354924
0.0018897377712097903 -0.0010726093444371324 -0.005252883066291748
0.004464167386446849 -0.0036952654343453727 -0.0036274616210159446
0.0016283388345106023 -0.001374728359621307 -0.005255677774090766
0.0014761362828866332 -0.001500946542107129 -0.005251233850163163
0.0014175143855199072 -0.0017656688736691793 -0.005250255476564435
0.0029471608635471156 0.001085921986225627 -0.004956560928462801
0.0033225452303349812 -6.793452175818959E-4 -0.004056636059117209
0.00330834710583144 -6.372243391198362E-4 -0.004267503272403285
0.0035321036537765455 -0.0014261458037976502 -0.00403857496047298
0.003920553932038685 -0.002510996202543792 -0.004039808988467262
0.001545531842911894 -0.0022366780845138354 -0.005060647724834582
0.003532713104903538 0.0014576575512717108 -0.005231866537889601
0.0034247515319203183 0.0011134735788138857 -0.004722296444698476
0.002629030613380059 -5.825933428217984E-5 -0.005365202732069089
0.002146562918461539 -8.706431766909393E-4 -0.005365920643634064
0.004619861925863909 -0.0042219889816159486 -0.0033780067820518055
0.004263963644369499 -0.004117298701790266 -0.003676976742964002
0.003709137900697936 0.0017077108803929225 -0.005447280728779954
0.003671694466328861 0.0016390434718806773 -0.005421067139231603
0.0036060438764929544 0.001617886417381922 -0.005327854065903577
0.0034423689153955375 -0.0017070147143779183 -0.004348257893709858
0.0038325103151148994 -0.002580340926554534 -0.004286459132919396