# vtk DataFile Version 3.0
vtk output
ASCII
DATASET POLYDATA
POINTS 1139 float
-21.907840218860144 0.9602866028861431 2.80294987147589
-21.48276399098396 1.2939775933600266 2.6999640982598496
-22.18699391348978 1.844637192988069 2.8771665015509624
-21.402397892430564 1.929060894499153 2.620141824137159
-21.37183942527601 2.8820355145715255 2.7716390516073477
-20.217333627725488 3.833607563590172 3.0392644665901702
-22.425639126856847 0.7074898133267338 3.210154974782524
-19.52737491228387 5.330783258404997 3.933345360917848
-23.67728154215855 1.412860230358872 4.073813602029323
-20.08919853929044 4.723937754806295 3.1725918318553825
-22.592341066957363 3.796912162041479 3.4536060404483604
-21.278673560311915 4.087494661950839 2.9052941589912726
-21.562574410301064 4.882311038631677 3.1508106816179056
-20.18545377729396 -2.047949521276755 4.875035976152607
-21.24265925651576 0.11445965704419718 3.290750010675391
-20.484638960628008 -0.714265501458167 3.7285989835512052
-19.852708875859395 -0.015526071848571061 3.6441163613121885
-20.37049900943088 1.7594168252870623 2.976006925543079
-18.82393067946775 1.2130042839386088 3.604093376713487
-18.352015729610454 3.0135378217316364 3.768952212116165
-20.618515057622076 4.859363047079894 3.1242777956027203
-22.16241891262756 5.397702232153084 3.554394633786458
-21.168594430519335 5.96526261015617 3.7219069609933926
-23.088610544179257 5.5873790773106995 4.273620115202464
-22.912398275597784 6.438121743511393 4.461888287795475
-22.378271820798975 6.358699469226934 4.166381240704002
-21.715181844820627 7.081314567280881 4.620126277851941
-22.687423300132842 -2.1492019532011164 4.887415260512024
-22.705243651796955 -0.6507531050822737 4.0894367126056075
-24.46592848112126 -0.6766979411894862 5.023384449062911
-17.755169333525636 1.593361292290676 3.9880345245583695
-17.371883361259883 2.3867639036285198 4.042025787197346
-20.40229713154948 7.194794405312308 4.844064745911538
-22.284448090930532 -3.435467621783658 5.802756727205938
-17.779562424251825 -0.07290873208470963 4.604785273443986
-24.176980929688494 -2.6824554804283425 5.958372420689761
-23.615279447192933 -1.5938898612011385 4.773663985198226
-26.306794768792276 -1.2597440292748732 6.823562680969367
-16.57814023162283 1.6179148678820916 4.8293818826620605
-25.648894767798335 0.9418013708203352 5.671852014285344
-17.493808878175106 2.7957279307971543 3.9468000471910094
-16.914713319543164 3.0289972388552733 4.558793823412575
-25.10572602813889 3.9662658433108344 5.643230436077082
-23.245983526116355 7.024100694911405 5.506748839199735
-18.754555217018154 7.2933474644945395 5.773811480534342
-22.57163577313725 8.843955876326952 6.7258080907331514
-21.52471396340697 8.205688918163522 5.7600624156213796
-28.116079112369125 1.3155635574912785 7.751315740802288
-15.048712055740317 3.163631194687667 6.297342654125828
-17.029428101878363 5.191494852889504 5.472491447739479
-23.990121833579842 8.807405650055427 7.762467985063344
-20.08076843209926 8.487171833589889 6.2847087565325435
-20.772262372996533 -4.815402291806564 6.803061624323341
-15.4724173223442 -1.5450360663123432 6.153557737260073
-15.209205927614956 -1.9469948982841554 6.3738538433028795
-14.879303921377232 -0.21980922106996245 6.494419614167485
-30.07130525696979 1.2853601623808082 9.017219956518998
-27.98963880411672 4.512456853530567 8.161825943711268
-17.325896974143287 7.4531313369188545 6.771906331066319
-21.39575214072318 9.578622301209935 7.533523457440449
-22.8150523488425 9.637305662888615 7.774266708275976
-17.11869773482111 -5.740245560176017 7.819824604160602
-16.397104035824093 -2.232629878242012 6.077517644186357
-14.106720286402103 2.0388516565513495 7.136781013017819
-30.531223025681488 0.863562068051276 9.322681072457172
-14.703793166759498 4.189899435955451 6.584700484475271
-29.849048443970553 2.9642133610359926 9.336205844907337
-15.126170859705336 4.947018235655378 6.666432335153581
-28.625262669684677 5.238473836544163 8.868162895329817
-25.842511128090926 6.713370104710079 7.651108100195914
-20.81235186068813 -7.276919259452395 8.952480379168607
-23.18304434543476 -5.06072632689388 7.497155573333815
-25.945434057712042 -4.125842749773793 8.309511803454209
-30.06308343525569 0.25841227318458404 9.2724887643246
-14.463563146384116 5.6747713130947 8.01778534022282
-15.938700886799149 6.707584468778601 7.233455424868432
-29.162717974379554 4.804469720897851 9.253520047616943
-23.387055870709798 10.443560270665609 9.55435095187944
-24.62172216137277 -7.432919970953761 10.239494959987322
-28.72107618038066 -2.051241550176569 9.325642319577094
-30.894376821572273 1.1719289361787344 10.0807400938338
-16.783057324102142 8.06265669960677 7.801502769960444
-28.285946707281653 6.186612947595286 9.505232549127227
-18.712225849119083 9.267446605435344 8.248848469642466
-25.995821632895996 9.036043661254135 10.083292233030154
-24.827017140840226 10.298510806448563 10.229207357981197
-21.055923044440856 10.648348007826135 9.263693139591428
-17.96179661354738 -9.164995280946796 10.079345266893888
-14.184477634799176 -3.463170748558471 7.4110065126026505
-12.259465288859747 -4.393701279839867 8.344302864353793
-30.973938531258497 -0.7734408909968625 10.96149869328719
-14.279780521010077 4.288947354858059 7.191093231590213
-13.881316379718939 6.1750998211225125 9.266558965339913
-14.790478711720745 -9.3712850081187 10.426268670322429
-11.40400462518433 -4.668081753594164 8.686369213550098
-10.861408331230113 -4.189753053898418 8.833887789091687
-27.99276577025247 -5.7635091844631186 11.007702815225208
-11.825354095541632 -6.637270144879673 9.274074504903469
-10.546502308228591 -5.2507392184100645 9.074017533082054
-9.564149619249692 -5.30586003822038 9.547944261309201
-26.83754403465112 -7.725583545836586 11.458314947720883
-9.920778869019943 -4.105123589952791 9.511589690159894
-30.595309862890748 -3.5768881690974705 12.160883805870405
-32.2426632182562 -1.209420252705001 13.124478152433168
-30.275892463070967 4.836242637606443 10.898679310466763
-15.658395846127835 8.140499686956167 9.433821206136631
-25.018384123808563 10.711716224912571 11.248236749759013
-20.18674734037165 11.241800046594273 10.750123210162037
-23.55764003156602 11.639902977771346 12.14492266073214
-21.61782578322186 11.962161381792276 12.136181474076793
-21.914694164958487 11.459833773089416 10.701994053721327
-9.91386240178563 -6.803368759746074 9.576691232777396
-10.132548910023258 -6.129596987280504 9.33635930972936
-9.092775706462575 -7.091657804245166 10.078397933341565
-24.756085819279875 -9.38279638776518 12.027942000426025
-25.896864356851253 -8.476330366657326 11.524573271462174
-9.213134743756665 -6.231050737601961 9.843755120219159
-9.325455855084552 -4.825388595477455 9.737054436806815
-11.841252613437787 -2.4643852809807414 8.554996485917792
-31.213371010521595 2.7500944620865666 10.988112907250017
-29.19658362092188 7.466605215236351 12.242562513116281
-16.50610699459954 -10.240265885949258 10.659442850113688
-9.646536570706292 -8.524187435524901 10.940803928800035
-9.742412034097509 -7.473495415622467 10.007557509405665
-8.703627214487813 -7.808113113936672 10.836635506469236
-8.38685957575503 -6.7086485382981 10.765816694092232
-28.14950420509665 -7.50839730207135 12.261504780387662
-8.736023814638681 -4.900389407759266 10.484305143249973
-31.852700490436888 3.6848112723779165 12.5649591028124
-26.936566779417394 10.119916023088027 13.043884590641083
-25.237973172143967 11.263470307883482 12.720804638530268
-20.212331792136176 11.878956271254287 12.940646959026472
-17.57731026314189 -10.794489034270937 11.299183819838682
-8.3669706952986 -8.724982649909286 11.827067835859946
-7.6372521478599555 -7.7317422915240215 12.149122841179997
-7.555639018969783 -6.031657638100514 11.890823377891902
-12.624302025780976 3.140508950335471 9.02994115470504
-32.21173715443662 1.0707629074851053 12.481781045373989
-13.23676950335453 7.236797184631201 11.023443694641932
-16.740255894616787 -12.07484464116994 12.798017518942373
-15.793670906473327 -11.009791596620625 11.452994494259283
-13.563992877474243 -11.772783017562787 12.834157424548902
-11.054433036149605 -10.024752580386469 11.927874339608184
-8.799897599270135 -9.755767082656755 12.556997078596908
-27.10373065572654 -8.854793592951664 12.831837999787975
-30.26844198085028 -7.241197772030443 14.156354389570003
-7.527214349148356 -4.161042197128824 12.279922600422257
-32.7935278855791 0.013733234406264885 13.504182142607986
-31.148756038792964 5.5981686906222965 12.880577171987342
-14.778038050285055 -13.476586619179107 14.666586475111236
-7.646260108140701 -9.209476957969356 13.244801497904577
-9.09317546196232 -1.4304419480784614 11.143649356325536
-33.297799011190584 0.2637187819768043 15.12667076543629
-32.772374666638086 2.811387726328679 14.119123635529643
-32.27909729292163 4.856556700966353 14.311911461310478
-18.066392100844613 10.651772391919321 11.664147368709608
-15.556159303046206 -14.475169307183016 15.88299280522503
-18.05397314048634 -13.740440271482237 15.118979960128534
-10.558543375584172 -12.032378402635528 14.123391503306177
-21.003032291561745 -10.69784951106685 12.25120155178727
-23.12300224146058 -11.966868831849942 14.42861169199224
-7.961036392490239 -10.14011768497251 13.841545633006836
-30.463583264038938 -8.769739517504389 15.141863199084085
-6.805531882743764 -6.7800404716928275 13.21423116704675
-6.854609560827126 -5.529176243945208 13.019312964542973
-32.408790390037936 -3.991646452177669 15.021714349194337
-31.22404865149946 6.752583990942647 14.52006771326957
-29.56466277153179 8.788987988432476 14.99855253157574
-27.7311673938202 10.489391264869099 15.600428437984384
-22.46620309000982 12.18066565740899 14.39790711972443
-16.6032639123732 -14.747285446917335 16.2817163753501
-13.5608049518763 -14.549619489710079 16.738904240244487
-8.86585233733105 -11.052503379593736 14.261452556312546
-7.098159179470289 -9.913166032980907 15.696637271730829
[...]
POINT_DATA 1139
FIELD PCA 16
mode_1 3 1139 float
0.00591351508771562 -0.0031784058815386078 -0.00380744700920236
0.005825120834523345 -0.0032184069854101854 -0.0038128692888179097
0.0058758827128351345 -0.0033636633876358867 -0.003963373605524001
0.0057603662632681706 -0.003332464685396288 -0.0038944270166038062
0.005667956004515056 -0.0035219519235564017 -0.004042405465540844
0.005415652283880639 -0.003658548578088093 -0.00407983748124422
0.005990536584764235 -0.003179804791618797 -0.003828360130699226
0.005218837946381257 -0.0039051713010173393 -0.004267240214435117
0.006077585327472667 -0.0034184360947971367 -0.0040567376019680435
0.005326881898668575 -0.0038205469496792365 -0.004208761597827499
0.0057637459673539285 -0.003774133339809995 -0.0043220146457687595
0.005547031988001605 -0.003754841936851456 -0.004226976478051446
0.005527265365800301 -0.003921802981532412 -0.004393935463445018
0.005754384210733128 -0.0026850000986022955 -0.003395278720083493
0.005855373637445785 -0.0030236598491954194 -0.0036553884828481194
0.005783673498902888 -0.002863812782650509 -0.0035062301228166227
0.0056385427012820115 -0.002961026243673526 -0.003532340216503185
0.005608041902923558 -0.0032745806759372923 -0.0037845254281088604
0.0053943258114623 -0.003139388276626783 -0.003584621513954331
0.005193610512477768 -0.003444993645598824 -0.0037825007256486556
0.005392498309110608 -0.0038709150697793255 -0.004288295481441488
0.0055851610228357 -0.004049124401344344 -0.004552109246403671
0.005410641634064037 -0.004100043450826767 -0.004544763763602855
0.005720855516877499 -0.00413482532060713 -0.004683999007938065
0.005653192005030689 -0.004273832155185738 -0.004818536373493622
0.00557167075829682 -0.004232901969057496 -0.004746560346217535
0.005455226832786667 -0.004319139891687111 -0.0048032847393627435
0.0061312342348780234 -0.0027887944897622328 -0.0035233932894231474
0.006082722344231023 -0.00300303059041909 -0.0036926611688593374
0.0062654340477975405 -0.003153315562054683 -0.0038341533679407697
0.0051881357169919285 -0.003181968085518156 -0.0035437311307561802
0.00507368021350065 -0.0033090628402334464 -0.0036015830928426075
0.005269373415426109 -0.0042664649925968105 -0.004683358126599768
0.006081358392801437 -0.002605479395965323 -0.003396085496979497
0.005274374803951446 -0.002915854226642032 -0.003401809510043325
0.006270773917352889 -0.0028575413811235753 -0.0035888187208585618
0.006233407990016506 -0.002927192329147405 -0.003644494441055998
0.0063961306349114115 -0.003284933941913151 -0.003914289574741278
0.004972304356352962 -0.0031692733756627637 -0.003496350846389335
0.006295393636100934 -0.003531552725783788 -0.004161584707758989
0.005068852790159444 -0.003381887054902914 -0.003658597834251207
0.004952521268454813 -0.003411281844608765 -0.0036759725587857343
0.006094889543296296 -0.003991001165189402 -0.004594098346693001
0.005713346495859764 -0.004383587780434701 -0.004950925267924498
0.005047638167713382 -0.004195731681196683 -0.004535619699462482
0.005605123485713213 -0.004626053970399379 -0.005208187634968582
0.005427218543891449 -0.004481941269149639 -0.004984537469379653
0.00649683430996656 -0.0038440849826172356 -0.004401086415170887
0.0046066721392868295 -0.0034048514441424333 -0.003650892298228948
0.00485396143651819 -0.003783863037768722 -0.004037166476941205
0.005857404115546131 -0.004688569960544632 -0.00532795438218896
0.005222032758147951 -0.0044484484060784224 -0.004881117069065789
0.0058747224920422765 -0.002347282819975758 -0.003248616291568228
0.00492897808382894 -0.00264219942215998 -0.00316297596251772
0.004891367223161499 -0.00258058533155303 -0.0031300039305115347
0.004738463751121446 -0.0028620477791055365 -0.0033028838055320924
0.006685182494985825 -0.004022250685587449 -0.00450022789667493
0.006457532680119124 -0.004298528376455752 -0.004915343580390393
0.004837044025646462 -0.004155190185438575 -0.0044310901412883425
0.005446774311805774 -0.004669359717304152 -0.005211593390856427
0.005670172525452817 -0.004749148739788974 -0.0053686140197459166
0.005336900295070898 -0.002066806241256111 -0.0030807073698616663
0.005113777971871772 -0.002559696343410766 -0.00317808920817338
0.004492083037158554 -0.003212587606165455 -0.0035260461356561735
0.00672210448737822 -0.004011361592483158 -0.004454286497349958
0.004491662363394443 -0.003561666433819105 -0.0037335505834236483
0.00666879605897241 -0.004239919720739091 -0.004761667301472219
0.004539187804170482 -0.0036915803759991553 -0.0038753718148510988
0.006544016840182739 -0.004448953054195083 -0.005087980768804163
0.0061476008464664 -0.0044817158077970235 -0.005120878813987582
0.005841554817754703 -0.002047530100409228 -0.0031792864033069494
0.006133261164241361 -0.002499518198399937 -0.003355920640046438
0.006325157416734658 -0.0029067483981736492 -0.0035905789584410137
0.0066590233560764114 -0.0038979232317993126 -0.004343299911806744
0.004419724642746605 -0.003787956912874327 -0.004007284100972917
0.004635204212781482 -0.003986629513748418 -0.004208875676050502
0.006605381062229101 -0.004435529660917089 -0.00503927253321051
0.005826963701653208 -0.004882342660521405 -0.0055388647358592695
0.0061196899711422476 -0.0024022585648292598 -0.003315024321040707
0.006494736121951184 -0.003487758538046948 -0.003971954555671348
0.006731922014604281 -0.004109090190525817 -0.004514881085938193
0.004753840815290177 -0.00422374607947908 -0.004500886235708196
0.0065013525982244086 -0.004575283068073683 -0.005201089106509738
0.005067851995524019 -0.00448443059600802 -0.004885765722550294
0.006216348131442327 -0.004836281467949358 -0.0055021461370087866
0.006066943657404486 -0.00493747451258022 -0.0056408898630727605
0.005460653347389804 -0.004789091862089011 -0.005351734495166621
0.005568536601573784 -0.0015651465399422254 -0.0030531158126831932
0.004728506642228635 -0.002361594623707404 -0.003041026695785512
0.004372283236327751 -0.002221238834421745 -0.0029262575584124576
0.006642728057818752 -0.003907319448302729 -0.004230013624367146
0.004416499264255167 -0.0035723345783609385 -0.003769112250131734
0.004337690675861477 -0.0038394477278770166 -0.004111235241140441
0.00516770265718013 -0.0013866170988539924 -0.002995409982880234
0.004187882146753909 -0.0021942880013251687 -0.002874481498495422
0.00402829955830719 -0.0022956849551904438 -0.0028863728437550583
0.006287059589991433 -0.0030110268761659015 -0.003546741895346147
0.004397788866182613 -0.001871931202682042 -0.002863926335143185
0.004003893622842661 -0.0021354248832185156 -0.0028133305634379133
0.003762459176816131 -0.002182456153434755 -0.0028097720060800313
0.006179518873290824 -0.0026527185351574887 -0.0033398124662441836
0.003801662915474767 -0.00236352192375721 -0.0029295771153065777
0.006429341437440348 -0.0035840730949796987 -0.0038804971912855955
0.006612003346469633 -0.004040727133035533 -0.004207997725938443
0.006730055922627246 -0.004557431330129892 -0.0050659682691803236
0.004623227742628617 -0.004182338276391115 -0.004481586154701971
0.006135520109875202 -0.005005992544560497 -0.005696951273148125
0.005392082668519847 -0.004819411911791516 -0.005351081737259417
0.005964218931637137 -0.005050306493985538 -0.005698434306844413
0.0056754084119759645 -0.004987571845801161 -0.005581121743336903
0.005656701527147728 -0.004936288109981597 -0.0055572532687412956
0.003951116414795592 -0.0019041588409514792 -0.002751052994526688
0.003950554011146312 -0.002009922664139127 -0.0027628920524196514
0.0037869330742596233 -0.0018976285938975056 -0.0027650415314041214
0.0060009600432827295 -0.0022134999077947377 -0.003271246005650912
0.006118721363475908 -0.0024486800927512667 -0.0032780336371081983
0.003740994540942771 -0.0020456012176434685 -0.0027789352039487144
0.0036792033598751768 -0.0022825638462685995 -0.0028581400851518442
0.004186963680126227 -0.0025518081307475174 -0.0030928956073583706
0.006778002157793191 -0.0043634353940159385 -0.00476920791761662
0.006655474109472107 -0.0048527557176312975 -0.005388987036330036
0.005477596225620805 -0.0012796798276264783 -0.002997334583623609
0.004113200380261457 -0.0015917852359587103 -0.002883624751473045
0.0039879664552352105 -0.0017903200157694278 -0.0027820013123510835
0.0037950799414822965 -0.0017916227190034459 -0.0028394338477308336
0.003609150748077259 -0.002027560046079815 -0.0028636871027456516
0.0061713744429327845 -0.002864997790230821 -0.0034064985862237536
0.0035708753461438166 -0.0023178642457886596 -0.0029514811264165133
0.0068449591172278935 -0.004571127362167835 -0.004909849326672373
0.006438295495581168 -0.00505890111730457 -0.005660533417384187
0.00622552128515852 -0.005097059288901258 -0.005758361023929308
0.005491611157763977 -0.004909982325733066 -0.00542480342598639
0.005588559385173236 -0.0012650974183976392 -0.0030680102223168016
0.003864078475753985 -0.0016301024333167742 -0.002950162796047946
0.003590237041267245 -0.0018994167709398247 -0.003012977280488632
0.003398105792568231 -0.002242249552785147 -0.003051367987668984
0.004180038970022317 -0.003385540448046851 -0.003727128972248058
0.006758225810935475 -0.004283337886067745 -0.004521434333289709
0.004272914711989373 -0.003955327367996461 -0.004299778307921981
0.005511098579197473 -0.0010071900250367507 -0.003205403857519845
0.005421096457591392 -0.0011118374025529188 -0.003046414709009328
0.00516794676123975 -8.983532642375516E-4 -0.0031774262195910087
0.004600152609323104 -0.0012434059968058758 -0.0030414344946425344
0.0041271541714436675 -0.0013800734155371666 -0.003052691360858517
0.006043777359758159 -0.0025921645292936615 -0.003343907708297396
0.006082221678994517 -0.0032139153460983396 -0.0035441581927906883
0.0033090743292829828 -0.0025627472478916124 -0.0032411600529683635
0.006706011282218429 -0.004240096827481642 -0.0043704476306901125
0.006841053334096113 -0.004760888103414761 -0.005174311234962469
0.005382965512099577 -6.185487600291247E-4 -0.0034230708379780666
0.0038310035307709688 -0.0015774728153127753 -0.003139382653777787
0.003570597203388354 -0.0028331185090795636 -0.003368041672731561
0.006668935168039487 -0.004340647625182495 -0.0044101170101370395
0.0068439353779385145 -0.004574757006910463 -0.00476176688561268
0.0069089652556372045 -0.0047832330698114114 -0.00504961385414177
0.005095609274532395 -0.004638647836243624 -0.0050642181274013365
0.005463279365812841 -4.775894563778992E-4 -0.003603729140274865
0.005538108591890789 -8.66979146215229E-4 -0.0034992004564529974
0.00479713323148952 -7.975770145981607E-4 -0.0032912325997368624
0.0057590617896595905 -0.0016231231723602677 -0.0032460484751079205
0.0056846982922707685 -0.0017407885846879184 -0.003403275469506035
0.004057353592412904 -0.0013400986891295267 -0.0032190977554136775
0.0058874743808859905 -0.0031400110653169453 -0.0034449392194282023
0.003346813697808612 -0.0021798017639077715 -0.0032014270126401803
0.0032418062342660045 -0.0024136546932451534 -0.00323707113419012
0.006324758186966761 -0.0037927643227059554 -0.003922375814923754
0.0068794841209148146 -0.0049397557207914765 -0.00528824667991451
0.006759387499335687 -0.005084867102392737 -0.005500104772265307
0.006599122525162632 -0.005185878889212475 -0.005637850465374032
0.0058878491296291795 -0.005078473543114924 -0.005613780406352416
0.005491442642540333 -5.384541543950266E-4 -0.0036632652410801907
0.005342598556283543 -3.307253764805822E-4 -0.003741346734169048
0.004387296443994984 -0.0010742260117274402 -0.003294371990013981
0.003956939413713201 -0.0014450599125077725 -0.0035188467613232366
0.0035617514697381474 -0.0018741090600774446 -0.0032774584529493794
0.0032329144551553946 -0.0023915792260557497 -0.0033935948269024144
0.006116067070194982 -0.0035282423667001 -0.003701997037705822
0.003882278921220939 -0.003750530606217135 -0.004183558360803088
0.004144993145912012 -0.004106596735760892 -0.004573226699669896
0.004682214130358238 -0.004399875977670533 -0.004799564983084277
0.006286848923253878 -0.005159562153047407 -0.0057149269127455575
0.006212863792050227 -0.0051926746064820985 -0.005660784910236121
0.005101712299535002 -5.241848822932197E-4 -0.003504995299224211
0.0056072758800483685 -0.0014156835619186093 -0.0034681529805048387
0.003348565047692318 -0.0021901673178228126 -0.0034179609940879433
0.005938053024826555 -0.003232831838833118 -0.0034335490040956975
0.005901461572587944 -0.003233588074199862 -0.0034149827124525024
0.003183655515557906 -0.0025955473342234338 -0.0034484486905816507
0.0032672619055960366 -0.003109912437015925 -0.003681861236015037
0.006938010453934798 -0.004925127851837349 -0.00514232884903792
0.0036283146667184765 -0.0038337170280809624 -0.004407995028307968
0.005434201276500513 -3.8059059046974383E-4 -0.003823756996963229
0.005446662694591084 -6.989347874939343E-4 -0.0038194130405393195
0.00550167628457639 -8.350461239587031E-4 -0.003642173557197199
0.005509455050326257 -0.0019406642948589224 -0.0036585244208425507
0.005813276379707794 -0.0021133550866227397 -0.003364796981132639
0.0035354434193450657 -0.0019684532813477908 -0.0035515646320491844
0.00590687911780585 -0.003259521108239602 -0.003482866119508062
0.0031490404859252394 -0.002708699765589942 -0.003604988030241174
0.005942092790194293 -0.0035139413264112422 -0.003737684697313085
0.0031826440601804935 -0.002871649685766355 -0.0035762301037754445
0.00635859619382088 -0.004181033507210331 -0.0041561378119914375
0.006868041074186707 -0.004788487641288016 -0.004872366809731446
0.005444830703524299 -0.0048954265757259075 -0.0053102625006687
0.00538247132641719 -2.5950713263169384E-4 -0.003972754148309071
0.004794306534685666 -6.277558809386919E-4 -0.0035039863314380378
0.004647884183827352 -7.530369508281489E-4 -0.0034375945628512725
0.003137987637820262 -0.002781599338807944 -0.0036945953305643916
0.0033809622967869036 -0.0034287499602059586 -0.003998952968525324
0.00325658835670112 -0.003690983427683837 -0.004406625267796394
0.006817247369118924 -0.005226740482896967 -0.0054792903719023695
0.006509615509186781 -0.005258461868954159 -0.0055552617460923655
0.005315458334487438 -2.2331591631274394E-4 -0.004131004023754247
0.004919642715324756 -5.15664206419066E-4 -0.0037180757751557342
0.00548286126385739 -0.0011171899870460705 -0.003673093301132446
0.004672396737044957 -6.878094890126618E-4 -0.0035269898117216507
0.004178244480221591 -0.001237776851168245 -0.00387932183676222
0.004014651082311925 -0.0014522842580125257 -0.003946392458632514
0.005797712348505455 -0.0026956735756708348 -0.0034712697132138165
0.0055326179288294015 -0.002763375963583344 -0.0036307284851646417
0.005536259490997663 -0.0030768139727865274 -0.00369563326650654
0.005748353610017704 -0.0030929095331346853 -0.0035438109916161174
0.006688753464229241 -0.004634901828845068 -0.004539424161670013
0.003151076614622082 -0.003370902871556499 -0.003975104636491883
0.0031304518308043917 -0.0032219290050179428 -0.0038869325315468947
0.003112157674269694 -0.0036817983398573944 -0.00449618288068392
0.003173184433312014 -0.0037578866375153988 -0.00454999779689138
0.006923617407904862 -0.005084075006194648 -0.005244662387473097
0.00696192925400977 -0.005260648838498748 -0.005348677823635555
0.004549956241160661 -8.583694857071714E-4 -0.003730065611728701
0.004146913250598781 -0.0013015288767223264 -0.0040191326777512925
0.003305373690928074 -0.0024821505199992956 -0.00379782562142021
0.00309634654914448 -0.0033922727067484133 -0.004100628618105053
0.003042878168448638 -0.0034020319381743817 -0.0042548334758503335
0.0068483463135890574 -0.004981771501737118 -0.004873215021434577
0.0032214660703095686 -0.0038036027205420237 -0.0045921450899850495
0.0039388004577450685 -0.004125176431849049 -0.00475379306473908
0.006983239746888258 -0.005298013447291577 -0.005322062708199439
0.006878491383963933 -0.0053065749359889735 -0.005323667967125543
0.006074222714030937 -0.005162602006776738 -0.005549073008464991
0.0053551707657449685 -1.6141039443407838E-4 -0.0043481780494175745
0.005149634198304448 -3.4741172018246E-4 -0.003896789766838017
0.005380559739471217 -0.0013748779208245135 -0.003845154652455447
0.0035278805335775465 -0.002553235928734312 -0.0044656713608673
0.0031272379998252093 -0.002958625052245008 -0.0038893383560304274
0.003072044294604051 -0.0032426529393824732 -0.004130951796388026
0.0031097149256891065 -0.0035532571839531745 -0.004460085930710628
0.0031014269825991006 -0.0037242580074931136 -0.004620722442104408
0.0031536087487335123 -0.0037835452319266365 -0.004691421297537167
0.003211728215908899 -0.003806568645799666 -0.004650972018390394
0.0034163071146435173 -0.0038739532817514658 -0.004617938138979319
0.006955915141328344 -0.00522705784919273 -0.00519652579596191
0.003744384435989544 -0.004073764777147105 -0.004843136298068303
0.005356438659591598 -1.2302156204715425E-4 -0.0044291624446477695
0.005326255014406107 -0.0016286373536379183 -0.003930335287908187
0.0037058140839970164 -0.0018577014842662421 -0.0038691673172132693
0.003098881782943256 -0.0033332169340253444 -0.004378748698821775
0.0030754929873423862 -0.0036892525411169764 -0.004681244442717185
0.003099073890070875 -0.0037416626402572246 -0.004719349005032117
0.0032332417661622473 -0.0038274695933350165 -0.0047357983972241
0.0038123074532806682 -0.004120468544159459 -0.00495858760310739
0.0046690163851155556 -0.0045278814561738115 -0.005038743089603772
0.004929569553335223 -5.5850747909503E-4 -0.004084291856219634
0.005373913144321367 -0.001038706776943343 -0.003919855366460539
0.003935134486989091 -0.0017327245316509615 -0.0042190404046145175
0.005414332280989145 -0.0029153108699446215 -0.003707476296331201
0.0031504837736475474 -0.003755725915920918 -0.004803952148179409
0.0032416755893876644 -0.0038187877986844247 -0.004804584550045164
0.0034905109133073296 -0.003949385869649961 -0.00483926202508312
0.005353115554940289 -2.346758338265675E-4 -0.004487612834605081
0.0053178693797622 -2.2833375536180796E-4 -0.004461345544678919
0.003248406684276133 -0.002999973926276942 -0.004362290688727035
0.0030942285284500455 -0.0036471412973914296 -0.004692260392493906
0.0042252224793695795 -0.004338803712553743 -0.005084245130110535
0.0053618417058632585 -4.1231198122567006E-4 -0.004258617253430659
0.005317325883374289 -9.106222954518822E-4 -0.004206826789011216
0.005175861333335767 -3.807137392151877E-4 -0.00432555306287899
0.004709493632011735 -8.933432816816615E-4 -0.004300904344358502
0.005231452969756915 -0.001973738509309069 -0.004151377721727133
0.003693267475599931 -0.002143997371868128 -0.0042923025109176186
0.0035268406848394866 -0.0028317865690962655 -0.004741929405827169
0.0032692787723999383 -0.003372464939160035 -0.004732222836144497
0.0065854662969867086 -0.004724797204671895 -0.0044328508461512085
0.0032035988340544963 -0.0036122178539123267 -0.004815191622760336
0.003164258446553862 -0.0037124048763474728 -0.004833109972060158
0.00337357386499469 -0.0038341279649863626 -0.00500728864263116
0.004303336809628263 -0.001337462827357081 -0.004281824442433882
0.005393503941533384 -0.0029503347485951054 -0.00373344031891152
0.005363616884154533 -0.002806499817736607 -0.0038704504750860513
0.005611251471758578 -0.0033603375622089527 -0.0038409053222190157
0.005917394229252413 -0.003899597271379996 -0.004041402610319079
0.0039006206630611165 -0.004159613596380071 -0.005090841562638931
0.005291517153450161 -8.290743131959487E-4 -0.004532602289851995
0.005283406707092696 -0.0013576055012766452 -0.00410789696009503
0.0038091880587284594 -0.002297425287496673 -0.004693205898266236
0.00344111654256629 -0.003097221171924138 -0.0048200015549977855
0.00679024257364005 -0.0050801767299218795 -0.004605746066575227
0.0068618495662947174 -0.005342892064393459 -0.005201539295464281
0.00532894657831952 -4.359697327963581E-4 -0.004729034685713979
0.005338009878703511 -5.41406158007023E-4 -0.004704908762057511
0.005318950298591092 -6.32522019333925E-4 -0.004614076978965186
0.0054801773923907095 -0.003382802901605489 -0.004006959630196203
0.005745280467444708 -0.0038148612477276085 -0.004062626769545304