# vtk DataFile Version 3.0
vtk output
ASCII
DATASET POLYDATA
POINTS 1139 float
-23.078007889160364 1.9314106220639466 5.124785673631862
-22.680537659112414 2.2796660399725392 4.995401744139197
-23.364645787537725 2.9095347959082924 5.167199005849134
-22.615973910404964 2.9656187853466185 4.89010932489609
-22.618552870250166 4.019341927980985 4.991239394378453
-21.559970948849053 5.052974806920386 5.159272479593361
-23.582830352274385 1.7003738804923614 5.535622850178477
-20.955818562703392 6.721238345336425 5.9311125884016
-24.822102020408206 2.566858989742475 6.354596679729978
-21.465394751215776 6.029232251675467 5.24806458505501
-23.817755540902628 5.095548654287216 5.642142735749222
-22.568456331381423 5.346023008558342 5.065274376397005
-22.86313421196561 6.237075546630426 5.279296208611323
-21.54382109909697 -1.1791141070889326 7.103780644733533
-22.465698015456407 1.0413225257380823 5.584890844356479
-21.76407939079468 0.16573467913883413 5.99430200032806
-21.16458087822418 0.9089915615973485 5.859923711851703
-21.65353030976816 2.790562215263476 5.185661433192048
-20.198614472957775 2.2227077409802254 5.728473026474448
-19.784927286693428 4.176344295780443 5.799793875216177
-21.968956412209803 6.186753315442634 5.218369525558424
-23.450730340486476 6.83929296767339 5.664722954716056
-22.52623954163488 7.440031311863082 5.768815467814189
-24.348956965242717 7.112084547313465 6.36641977593545
-24.20313031214648 8.043294936389046 6.5114506265473295
-23.68973654381947 7.926136404333383 6.217343850825342
-23.085584550941356 8.715385256679392 6.602811856368273
-23.914828127727997 -1.2572687614953493 7.218074194331433
-23.8819642993059 0.3031855902108462 6.419292382473829
-25.60554917044159 0.39138416786353997 7.34518994320663
-19.198273672566003 2.650097213518353 6.029410972481753
-18.847273955950154 3.504989436255705 6.03387110611176
-21.843988446081276 8.812369767543249 6.771655194470558
-23.620642023562226 -2.5777887473074816 8.094015192334087
-19.218140327838988 0.9065623567774049 6.683520879026445
-25.41520429866796 -1.7100603683075384 8.272926167259813
-24.78085277864843 -0.6482411808664799 7.12637291848752
-27.474248014837343 -0.03854416228800694 9.07430451905712
-18.088194391363675 2.7321700542589946 6.7897350750680445
-26.7664755665758 2.2311726003765195 7.914568729797881
-18.969378987044756 3.9403700360750205 5.933210040854102
-18.42801228866818 4.230123410767944 6.4941073624534384
-26.27737806926509 5.489886813937121 7.761739158035931
-24.556263772284595 8.740399850185794 7.488243726642887
-20.289539558162037 8.925348555563954 7.604410397599723
-23.97447903767452 10.7465506267237 8.574052075507153
-22.9475939509114 9.982053050902811 7.647512569529888
-29.21074427688988 2.8656219093526882 9.880741932947311
-16.66114266714667 4.48923532208491 8.109414986219804
-18.590404345156923 6.618870002414277 7.315492610438257
-25.351806143074672 10.795993921971522 9.58724259433345
-21.587506560571747 10.27044003070504 8.100953295769926
-22.284967703997744 -4.00283146886961 9.013295287816765
-17.03521893055479 -0.5608516183472175 8.116038358605195
-16.78881000517493 -0.9675020835658151 8.328416437061511
-16.468386157670572 0.8953789680968327 8.396925502446628
-31.106477634435937 2.9844136984389062 11.091885455286342
-29.105810081599937 6.323948513301643 10.156755921404216
-18.940806872544027 9.120884709947887 8.511783968919653
-22.885315034604055 11.53935672133091 9.296147886796875
-24.24489241077418 11.655812890203013 9.55326881442378
-18.838732200789607 -4.9292519746743 9.872061852287471
-17.944205029645047 -1.2985971428625274 8.099036612480415
-15.74556005172443 3.3491840801108923 8.94147627771805
-31.55744307193431 2.569209119720565 11.39649079395573
-16.351203355931485 5.5991284190696495 8.332163265384738
-30.916551765849725 4.795823121228441 11.327837324518315
-16.773255955020023 6.414294436127553 8.407046410734846
-29.73607820390261 7.16582328761547 10.80516460395141
-27.07809245963015 8.592396811323706 9.574857261923553
-22.583114702310937 -6.485840088506834 11.07950888224321
-24.650895426504974 -4.16877091877249 9.738345078292861
-27.308447483181403 -3.013712405364294 10.52787567870074
-31.13529523401692 1.903692353320409 11.359374874932033
-16.162892187590096 7.270321529250312 9.699702974613835
-17.598391079729563 8.3289823273032 8.94001956220088
-30.26377992984329 6.740557179398066 11.184200850860723
-24.852805682156834 12.612798710123668 11.237068198044568
-26.331668180078445 -6.451610924037891 12.373423090789897
-29.944146875796054 -0.6083083865888433 11.454230936159954
-31.957187565485263 2.964000168509932 12.089527527570358
-18.445842753791094 9.817706324204423 9.480422024258289
-29.460907140139266 8.2054417387693 11.367399113579815
-20.328128508676343 11.16372965316651 9.935597106831004
-27.344094955592322 11.211019236728145 11.806994512306463
-26.246299656708537 12.53388812834123 11.899927492647432
-22.617796434001466 12.748215718908526 10.91939604217785
-20.009547858988448 -8.491603816903318 12.102814646759105
-15.841086293337161 -2.4773313897202742 9.330628809425523
-13.972050517247757 -3.350450737909035 10.186238968522316
-32.14088252063332 0.9560071293950333 12.961419322010949
-15.948872269254835 5.747300828903942 8.918877602630177
-15.623920154274618 7.867646353920899 10.915901397974325
-16.90520015825488 -8.67855459326311 12.35714057403433
-13.123030688509733 -3.583560915133644 10.49253055256834
-12.558960770660262 -3.0313124255273185 10.611490529814132
-29.505179474882983 -4.4679613470950486 13.101988223855018
-13.653625957843039 -5.663353398553142 11.118805940443815
-12.270608549416004 -4.126380636935472 10.854135218861133
-11.281582711873323 -4.083011552348181 11.293761627835478
-28.53333394521279 -6.5796791740493035 13.555639520948109
-11.62898988003872 -2.8334999318917684 11.2563958215911
-31.960212492899995 -1.9423726691832996 14.143435786065321
-33.50472488743892 0.6952710487948331 14.989981442681083
-31.416130739134818 6.90503305384053 12.728312939617417
-17.387383630201757 9.963629634877448 11.063356993252041
-26.472746073250324 13.021819585353887 12.863120793909378
-21.83210630558766 13.411550747680252 12.331549414444314
-25.115595125275718 13.99486242670313 13.693052054848712
-23.255768686702986 14.273336680347136 13.667570580546142
-23.49066912584569 13.69676294680712 12.295465442482667
-11.695444366733978 -5.704358973559348 11.362996799719475
-11.880545118685339 -5.01585964067773 11.116713180626954
-10.892518874677645 -5.921869720011855 11.840291012911019
-26.697805173639452 -8.391492980128133 14.080096426425248
-27.688368197146676 -7.418087601823127 13.619358742357099
-10.965910470904516 -5.023014010382707 11.594990289119703
-11.035052483091059 -3.5394448542520855 11.46664032403927
-13.528000684966413 -1.2575148229767872 10.353454157594191
-32.31130101192798 4.71800080101988 12.881972427187891
-30.481057381759282 9.742310255021557 13.909879012273187
-18.697698419963725 -9.644836540194557 12.63859131757464
-11.624386326515596 -7.480499937596865 12.718905269324758
-11.584816547626394 -6.38939742942543 11.794922791714006
-10.58501502969587 -6.622604769346235 12.588412283276035
-10.195808488016292 -5.4087597620847205 12.494353074497921
-29.82068326123078 -6.218429058693048 14.310880518590913
-10.483760999453972 -3.5251744469956057 12.201542522364564
-33.019528870780576 5.829794914230927 14.324936938186346
-28.379265423782062 12.526210508303633 14.598009835749473
-26.74534878625635 13.674049963914088 14.2583177501196
-21.926318801834988 14.16658070819216 14.451099160028376
-19.839862161510855 -10.196942026170108 13.273161071591103
-10.36724580489745 -7.548671688024697 13.563766441449575
-9.568101085994162 -6.37698365707091 13.856811991755732
-9.385521206320513 -4.53746410708761 13.583211081266494
-14.346054656699005 4.668259362615001 10.753778111652174
-33.37926039875026 3.063166296346751 14.328555795830235
-15.046824452570236 9.067303956198922 12.647162507966007
-19.230546500826247 -11.506210291005047 14.680644738522364
-18.11058077973295 -10.43606886083848 13.382483167287877
-16.03651629526801 -11.165319937561627 14.650727123064701
-13.26391522184883 -9.179315804099721 13.71976409323725
-10.948273687729014 -8.696115944158462 14.291788578270754
-28.94603446459565 -7.65192810316924 14.85256792910077
-31.940008773070826 -5.667397671240815 16.07773455853683
-9.336426529620132 -2.5294631306884954 13.962230388306342
-34.01753839666314 2.0328088061583256 15.313950776904292
-32.36758259615239 7.855573435588532 14.562699609105248
-17.55550067753099 -12.972719139962868 16.415754214037545
-9.751785073951172 -7.963631483219523 14.945049167587879
-10.86287294213924 0.1442677687049393 12.85475662391849
-34.598010096749654 2.4189639460984647 16.831085043463784
-34.0009243135862 5.025984864544869 15.809954597940438
-33.53190300025977 7.183843541704843 15.930219976026912
-19.80589597705871 12.760360102277781 13.225183467085062
-18.52636786195159 -14.015246329110745 17.579083414801076
-20.837348964645926 -13.151695856380249 16.90077739475417
-13.085707233415127 -11.30144539511381 15.836114574809594
-23.220298358123678 -9.927590692245683 14.231737223930224
-25.483364668635808 -11.026313175689836 16.32451899208322
-10.193760487551577 -9.00787697826567 15.536651768555247
-32.271203699182315 -7.17360027563803 17.022495078855716
-8.726208833901639 -5.20788179535473 14.89054854520249
-8.713385446160197 -3.8719120262709397 14.690420365682467
-33.87446112529018 -2.0896559000618113 16.829628684140523
-32.538548777373045 9.164793351024487 16.077743540814797
-30.98361214827479 11.284051871354746 16.488609023000546
-29.257052572484962 13.041086507386323 17.034717930182715
-24.14691880530346 14.607500014219532 15.861324083700227
-19.60721575652294 -14.256779737511243 17.975613291625248
-16.572567251893556 -14.091886208533818 18.3621773303915
-11.244791707745762 -10.093833121005213 15.9543252822491
-9.397017097996073 -8.635735012513935 17.350725328398823
[...]
POINT_DATA 1139
FIELD PCA 16
mode_1 3 1139 float
0.0037599354812531574 -0.0013763379757792025 -0.004197040731029342
0.00366144733158493 -0.0014085900507034635 -0.004210531705424272
0.0037109230732557687 -0.0015499450479150411 -0.00431469742603091
0.0035841388477928253 -0.0015132769554773477 -0.00427214210890288
0.003478257369389138 -0.0016846975086604635 -0.004401043063125692
0.00321155469176627 -0.0018013880504134136 -0.004502807303372971
0.0038572118421014417 -0.0013778768437869582 -0.0042257654851478145
0.00299455291824356 -0.002046573636776099 -0.004752402423006123
0.0039654307287249595 -0.0016063145378844223 -0.0044268386676590415
0.0031059629891464994 -0.0019511804715078877 -0.004619440786349036
0.0035730678613953406 -0.0019303067769371792 -0.004623672159534973
0.003336734965122429 -0.0018944020066691486 -0.004558527973861154
0.0033023522721341773 -0.002051828985183614 -0.004695426057369061
0.0036885155506087273 -8.426181084772623E-4 -0.004093796060039338
0.0037253107493499873 -0.0012129315061299882 -0.0041420915785198706
0.003672142426721218 -0.001044256463218121 -0.004087457458120886
0.003515938769479942 -0.0011351202999950241 -0.004130764461561116
0.003441512755717732 -0.0014458172852344971 -0.004259344489932803
0.00325392513165859 -0.0013019256134050904 -0.004219564512081789
0.0030263138375145205 -0.001598721830297582 -0.004416385844708023
0.0031672819111771755 -0.0019993497303435474 -0.0046527016618401786
0.0033520904049588536 -0.0021797937149405505 -0.004825262332692548
0.003162268084721035 -0.0022257827911064706 -0.004875384680582384
0.0034954822212014736 -0.002277743479741029 -0.004950050295205323
0.0034008324677864917 -0.0024089026108369454 -0.005074370963025636
0.003317487996179671 -0.0023621049601176224 -0.005016424141577488
0.003181503643859802 -0.0024518442657871136 -0.00512521803996979
0.004097693924849699 -9.591573417396765E-4 -0.00410429184332346
0.0040024228391297954 -0.0011927292821948484 -0.004177277291741192
0.004237509407930408 -0.0013315051597971638 -0.004297198623583681
0.0030561367572365813 -0.0013364326234620823 -0.004267857179497353
0.0029321997937579295 -0.0014606697211099542 -0.004340985464002539
0.0029965455109529165 -0.002409806457414835 -0.005107142401205497
0.004077260839467975 -7.408147224711248E-4 -0.00408398045784334
0.003184359057078063 -0.001071338031847104 -0.004187851880396991
0.004296938197269921 -9.947941402303746E-4 -0.004180391810060169
0.004202284570801145 -0.0011072619687516492 -0.00415840786660869
0.00446484286510842 -0.0014177050960355083 -0.00442914727335735
0.0028720266678929273 -0.00132562662274891 -0.004344355325286346
0.00426628584631666 -0.0017095377480728135 -0.004565000680862158
0.002916637200712715 -0.0015329540370802321 -0.0043757570744715
0.002815288060850743 -0.0015713163672400913 -0.004461248271904953
0.0039652205666513675 -0.002168497282472558 -0.00492020026718095
0.003455988306574796 -0.002536488656416255 -0.005249613653965752
0.0027959239904114686 -0.0023730521211351016 -0.005138379745905736
0.0032880479581808585 -0.0027953466724557267 -0.005569618353496452
0.00312564751270697 -0.002636467396305875 -0.005364026063643896
0.004561282038339991 -0.002012312180992181 -0.004830215076284606
0.0025360904202508198 -0.0015910030007840184 -0.004646298738993009
0.0026815885876861245 -0.001964752535166084 -0.004810443479967218
0.003565679141113681 -0.0028735979987067743 -0.005685074145802566
0.002925055983728392 -0.0026240738387173375 -0.005383587713964838
0.0038727817621045414 -4.473976318180113E-4 -0.004088692945705661
0.0029094448594612684 -7.746860259120512E-4 -0.00419399362842874
0.002882402783273192 -7.031131490313845E-4 -0.00418729261267583
0.0027267179108979526 -0.0010062717546727264 -0.00435649234095198
0.00483947924210775 -0.002201614010172047 -0.004945400054760492
0.004402862794594159 -0.0025064475356189435 -0.0052719526857275155
0.0026137056690256674 -0.002369112535486077 -0.005198634746692174
0.0031170218909310184 -0.0028621117368642047 -0.005676498229223289
0.0033354849467762543 -0.0029359557171949424 -0.005761423805987764
0.0033211970573442406 -1.505435671240377E-4 -0.004148402394069796
0.003085152379142239 -6.876243324923399E-4 -0.0041559858901893685
0.0024823561325907927 -0.0014005886660672377 -0.004626730773588559
0.00491569875957779 -0.0021825083433675307 -0.004916688566790858
0.002411926148728097 -0.0017628765426284346 -0.004766021282248077
0.0047539687734796995 -0.0024344677270236813 -0.0051779195539829095
0.002431989667413674 -0.0019008092463011748 -0.004862301588101567
0.0044818681079842595 -0.0026723788493733646 -0.00544067532503277
0.003961184137110938 -0.002674374438957854 -0.005455853681296231
0.003863736365565248 -7.514457950832982E-5 -0.004179310068460846
0.004194038160298433 -5.634885618860689E-4 -0.004137092274658713
0.004471046146915711 -9.394309777223484E-4 -0.004280194116134541
0.00485579986913464 -0.0020375012749197898 -0.004830380222061682
0.002335235847744223 -0.002037890101949309 -0.005070770915464373
0.0024703337667609064 -0.0022209276199772446 -0.005119722120319283
0.004587434823075282 -0.002652865295227437 -0.005412032158937656
0.0034967864213657877 -0.0030958021186395356 -0.0059901416437004775
0.004280733005421914 -3.209899883249631E-4 -0.004232663633244627
0.004710406202798121 -0.0015335097924241774 -0.00455955806637339
0.004942354854999138 -0.002257663332971842 -0.004994592003053955
0.002539983814183765 -0.002472261063676074 -0.005342899353913025
0.004417312849801305 -0.0027852328594795985 -0.005574291518567537
0.0027908212839004107 -0.002724265135797492 -0.005574505903922818
0.0039887079217690285 -0.0030380543090813895 -0.005907155258119573
0.003762071096070682 -0.003149396281733404 -0.006066536759971061
0.0031187230527156542 -0.003024596754717131 -0.00591155365403373
0.0035121541137052947 3.8760253466851613E-4 -0.004255102176683692
0.0027635041746108227 -4.4397499357351695E-4 -0.004202266624301535
0.002472629483568198 -2.564472883575974E-4 -0.0042245396614024305
0.004939217811791841 -0.0019533117721851675 -0.00479716929824327
0.002358135787884164 -0.0017880437115952153 -0.004843335990712025
0.002280315902954863 -0.0021365295105441207 -0.005235648802236495
0.003082791024899406 5.246005887675017E-4 -0.004322830117226638
0.002330602031328624 -1.9794858972871777E-4 -0.004230389229310161
0.0022135513865870118 -2.840165925488395E-4 -0.00427329924887506
0.004582796378621547 -8.808460648573897E-4 -0.004331263613283993
0.0024771454483473927 1.1641215774066261E-4 -0.004217140765485685
0.0021942214171653597 -9.49377065580683E-5 -0.004223204281641361
0.002013613466130568 -1.0257144587981251E-4 -0.004275067420069144
0.004465035367206049 -4.616921506914472E-4 -0.004239570931012621
0.0020448949546639345 -3.3235842981267367E-4 -0.004376404820054595
0.004794687960919075 -0.001475047067445679 -0.004567729671541657
0.005001776777459525 -0.0019913377519827444 -0.00483441418678705
0.004793971661237106 -0.002744329095967837 -0.005498093243186023
0.0024663501101602364 -0.002490272400512234 -0.00545159173566091
0.0038463102931063893 -0.003220013061697023 -0.006155888508797534
0.0030683778374272458 -0.0030990348530376866 -0.006013846260092874
0.0036552220227114747 -0.003289925320462914 -0.006238648864878159
0.003349103624863987 -0.0032654805689770845 -0.00620718864659889
0.0033067707915135545 -0.003187247314091089 -0.006119659488550196
0.002130210157498828 1.6817696770113965E-4 -0.004185223172873994
0.002146180544632204 5.790825598563907E-5 -0.004192062713565172
0.00199060767271669 1.948492985609427E-4 -0.004238948695396144
0.0041755387189632755 -3.67746094284046E-5 -0.004299129444249248
0.004362263024133499 -2.6024063524525377E-4 -0.0042321615340331215
0.001980235045673498 5.0469062257178356E-5 -0.00425466510948328
0.0019551781356623647 -2.0469529007701643E-4 -0.004341949944443971
0.0023221560893665416 -6.141851179460021E-4 -0.004403527085919512
0.0049592254758761955 -0.0025191939110340354 -0.005241229170440907
0.0046295780371760666 -0.0030257704611505896 -0.00584303694502867
0.0033706988542211895 6.44577748906301E-4 -0.004301392068343638
0.00217721848101757 4.013948587352971E-4 -0.004357521496095244
0.002131207423920713 2.638483864174675E-4 -0.004226303399543979
0.0019610959091196064 2.7142597547715093E-4 -0.004340428410294998
0.0018562782663559267 6.631587621489004E-5 -0.004386992360569141
0.004517907866374425 -6.237991811333986E-4 -0.004278978831595931
0.0018631935631971198 -2.5080251832920394E-4 -0.004469790738521831
0.005055470943083326 -0.0026952632564848466 -0.005415081507031384
0.004275332697293553 -0.0032447710745939955 -0.006148053835162222
0.003964205075919729 -0.003311994840656865 -0.006264355952095194
0.003209109579899307 -0.0032317131935299575 -0.006144267352871615
0.0034807239778661863 6.853537446602085E-4 -0.004371309128879941
0.0019617950478824503 3.719819604331844E-4 -0.004483081370488773
0.001789355450952171 1.4034057249789943E-4 -0.0045844969601615965
0.0017054436355445895 -1.6786482099093492E-4 -0.0046402664426659565
0.00223221398790018 -0.001625760872582622 -0.004947955635597678
0.005071916333879383 -0.0023404636677231824 -0.005075177215525066
0.0022428541641143027 -0.0023425726805169043 -0.005473426035933175
0.0033335800678099725 9.181949121075712E-4 -0.004620181240696004
0.0032741907023787465 7.924623620166412E-4 -0.004420314940792814
0.0029592403630922474 9.384827696361384E-4 -0.004675606829979954
0.002511455352552263 6.351150771913559E-4 -0.004527671799724561
0.002112505737625743 5.296562252470671E-4 -0.0045972899398925935
0.004335788321375115 -3.295872593886006E-4 -0.00429912324388461
0.004508678169042924 -8.882304910199748E-4 -0.004383070522968845
0.0016683926794502152 -5.525815428736233E-4 -0.0048469713460492
0.005095491398016391 -0.0022249087829416246 -0.004972523214503892
0.004964729073507998 -0.002906851635710675 -0.005660955460980205
0.003089243346951544 0.0012124850758313144 -0.005004594094720623
0.001891404717630774 3.4628625073262586E-4 -0.004727029689969311
0.0018613134365010834 -9.337308960309293E-4 -0.004866995065123212
0.005073524993664513 -0.0022802284311420166 -0.005030959031295817
0.005156766023294241 -0.002621541966721816 -0.005323042520849038
0.0051429938070078505 -0.0028701938134345264 -0.005585239119718139
0.0028567583712549734 -0.0029776031734915966 -0.005885986967372023
0.003124907873824006 0.0013692524239956616 -0.005236854960786628
0.0033039758161989563 0.0011094634465139237 -0.004980400552067364
0.0025508035548368778 9.411579058632323E-4 -0.004893173045508374
0.0037426913303724553 4.4031496068004157E-4 -0.004445045307929587
0.0036960872109803077 4.4302301985093374E-4 -0.004594735676386765
0.002014498076124209 4.988100249561238E-4 -0.004815563377147242
0.004358561980994678 -6.881251463792155E-4 -0.004333300861965542
0.0016319106899939032 -1.5623692728403666E-4 -0.004833694565159566
0.0015958361117391336 -3.776607679693756E-4 -0.004878476697483537
0.004767623311858528 -0.001578218501966574 -0.0046431150742513
0.005019373749422353 -0.0030474181335235803 -0.005807428775411274
0.004793033704385931 -0.003205464149295554 -0.006022213985453396
0.0045455028665712365 -0.0033337925926822916 -0.006186290300381064
0.003642714625653479 -0.0033612643321691803 -0.00626782553262349
0.003161903330908418 0.0013589545417400577 -0.005271050391466774
0.002955808013848954 0.0013874695765993049 -0.005454303232522403
0.0022350503076997252 6.844477383511565E-4 -0.004899234763043293
0.0019152934465284752 2.7454872570421325E-4 -0.005166916712334286
0.0017213172760001535 5.343248174611358E-5 -0.00490856850467099
0.0015646290535945226 -4.328928983234118E-4 -0.005054767859782656
0.004575456501254943 -0.001208743337325859 -0.004488550214579532
0.001994956691004291 -0.002194823073008735 -0.005520910638531658
0.0021584045967737867 -0.0026713971917387575 -0.005812317758814481
0.002557526432614461 -0.0028526751510820317 -0.005828723926861481
0.004096719450641311 -0.003368805065333719 -0.006279251923065541
0.004054620805235953 -0.0034229035980333157 -0.006287383554736673
0.0027677218769280487 0.0011693720847375606 -0.0051665984830574115
0.003517743788535521 7.105183179895157E-4 -0.0047640101514410975
0.0016053447243721303 -2.7661615099413905E-4 -0.005074704491951983
0.004448474148651489 -7.753826199815664E-4 -0.00430421256624498
0.004425496617909749 -7.493392134227822E-4 -0.004292708310492969
0.0015606579487954498 -6.544863765919158E-4 -0.005111451113944405
0.001651555846699627 -0.001328350360469967 -0.005277401356018518
0.005180525659306955 -0.002983526752770305 -0.0056949467473122245
0.0018126743499952904 -0.002455215592551105 -0.005825334912011999
0.0030536375956036134 0.0014240254928368056 -0.0055026791920488975
0.0031320369755008367 0.0012402123927166384 -0.005368531524576573
0.0032418283885187857 0.0011778045894114773 -0.00513965604674231
0.0035174978775903117 3.059902628550257E-4 -0.00480178564877832
0.003950648325023628 1.2103723013071352E-4 -0.004453120228258783
0.0016842984752427578 -1.7332053376758818E-4 -0.0052109988816575956
0.004396538573369201 -8.101991627047123E-4 -0.004345830881178924
0.0015379850118628312 -8.4421377329377E-4 -0.005282901740864995
0.004367508030328717 -0.0011636849457428804 -0.0045296329955540745
0.001586040072093985 -0.0010075950954600045 -0.005220503917849445
0.0048077369726803225 -0.001997055359918712 -0.0048342962380477335
0.005204317081671167 -0.0027878205750941345 -0.005454395554389346
0.003273757078795068 -0.0033085206613749116 -0.006128281147895999
0.002964432948349028 0.0014444485186647094 -0.00571397618963443
0.0024751079383129866 0.0010012207816771407 -0.005178932261930799
0.00236968452540611 8.999609893799674E-4 -0.005092219433911007
0.0015325699486482464 -9.695745022656139E-4 -0.005370160062434087
0.0017033820652608256 -0.001837219613879993 -0.005516679995725978
0.0015826586707965247 -0.002387789552724916 -0.0059236535543084595
0.004932229274737317 -0.003297733346349757 -0.006049711611216641
0.0045098890309375 -0.0034176352545829446 -0.006163198327914674
0.002879979472939678 0.0013677603584547103 -0.005911711330469073
0.002560052426809964 0.001051560965824596 -0.005433926109909425
0.003283974347451885 9.710079831332421E-4 -0.005075482981789909
0.0023629650229281362 9.175835553967055E-4 -0.005205531340777579
0.0020059577621787026 2.6190824371352266E-4 -0.0055571811676616316
0.0019048342176398042 3.560501915833508E-5 -0.005617602313045107
0.004098505949375454 -3.2864237875176474E-4 -0.00444035452673381
0.00377547913485647 -3.481701581254944E-4 -0.004573978357919472
0.0038333992421801426 -6.408918107048617E-4 -0.004562540945430313
0.004143856409189138 -6.480419171284691E-4 -0.004434198442113642
0.00512495921408624 -0.0025434256737308317 -0.005161697338064606
0.0015721944373784753 -0.001747183547735631 -0.005584958754059055
0.0015580681569031495 -0.00153935782573685 -0.005516465655127622
0.0014924850930665165 -0.0024607849049122074 -0.006029178259140782
0.001509432519191676 -0.0025830095220787663 -0.006073687332274689
0.005156904418947374 -0.00311349309986618 -0.005809948538237893
0.005205678065129332 -0.003260052416656492 -0.005930535859490173
0.0022798664106917217 6.859099277682355E-4 -0.005412519571226981
0.001972606845461085 1.292232875144111E-4 -0.005697536571828935
0.001587538803227356 -7.719434042233115E-4 -0.0054505968642156385
0.0015336390938143426 -0.0018516648728499287 -0.005703518321518918
0.0014941667573690298 -0.0019630192879278217 -0.005844467914413811
0.0052405913186255775 -0.002929364076197151 -0.00546812363350294
0.0015258162331872858 -0.0026608243281782762 -0.0061043442341031685
0.0019992122900993384 -0.0028982055484211553 -0.006040927334396065
0.0052604598504857715 -0.0032755810233205595 -0.005909971809063933
0.005124659950417815 -0.0033151787198572756 -0.005913784883810036
0.0039496954043465255 -0.0034397246441420725 -0.006227409328601821
0.002900751542541456 0.0014036351637926867 -0.006158699031517594
0.0027466606533669076 0.0012177564841453247 -0.0056466769678675316
0.00320311573399554 7.735771594088557E-4 -0.005152471628910428
0.0016970496957666144 -0.0012872261448525928 -0.0060172964807716734
0.001531507269369832 -0.0012736530834822838 -0.0055375142914015196
0.0015096970295402931 -0.0017133461002431876 -0.005746815180781649
0.001516122530064152 -0.0022851394718163276 -0.005964168230649733
0.0014779054031398193 -0.0026021069336333302 -0.006108362754673314
0.0014899470524555654 -0.002724640284362093 -0.006155170151902127
0.0015197329749155161 -0.0027103682373349285 -0.006133326966578031
0.0016491773437411184 -0.002705150058412453 -0.006066199370106595
0.0052723083086590825 -0.003198234020963392 -0.00578181920670034
0.0018414265581670826 -0.003001168542441783 -0.006149775700938308
0.0028935406153398216 0.0014009476298013496 -0.006263429411718435
0.003179950876144426 5.463695550528573E-4 -0.005139690328004848
0.0017542007324735291 -2.722010231804768E-4 -0.005528775481947395
0.001514765101693893 -0.0019841576081070394 -0.005924157673841802
0.0014831808653075003 -0.00259472240025621 -0.006112637438937067
0.0014826090681708884 -0.0026862567504872007 -0.006145977123549074
0.0015292632961542982 -0.0027947955841122973 -0.006168308220805161
0.0018751812834659142 -0.003134102013089185 -0.0061992697327844975
0.002571266723488839 -0.0032022806286206456 -0.006095405806698342
0.0025524127317589768 8.703255660061389E-4 -0.005811760315796519
0.003108262210463685 0.0010086340463743462 -0.005338103625695783
0.0018727747165163998 -3.768781077123133E-4 -0.005854446352468919
0.0036539190528679538 -4.6666360513003655E-4 -0.004600268920406855
0.0015165745132663254 -0.0027557586034805933 -0.006161393024236251
0.001548231092199086 -0.0028269987466620953 -0.006172333249144603
0.00167805740406105 -0.002950381748177132 -0.006174918433302311
0.0028995789650949296 0.0012950836558680832 -0.006262617224380276
0.0028648746143907318 0.0012413493807343402 -0.006254381670132551
0.0015775969863243617 -0.0016444627678284945 -0.005906365772390012
0.0015041812623108216 -0.0025499936180984418 -0.006098296659988697
0.0021803761952881237 -0.003301580707209701 -0.0062070824291327945
0.002946059970741325 0.0012830937528555161 -0.005933003911802832
0.0029798626025748544 9.873532511696379E-4 -0.005654473563520521
0.002750159974229674 0.0010359157644749533 -0.0060799439136114105
0.0023875327697814425 4.0663256446161594E-4 -0.005972907252632841
0.0030900958662889427 1.5440933400676394E-4 -0.005203494645541675
0.0017597774702770173 -7.932824253925444E-4 -0.005899798027960443
0.001718690731399985 -0.0017487039827276047 -0.006193171644420237
0.0015997009963915473 -0.002292892291808716 -0.006110765514631928
0.005075178579561377 -0.0026406578192521516 -0.005053168312063638
0.001565322767504465 -0.0026042890357260255 -0.006136160894603358
0.0015365580563923577 -0.0027237778877781554 -0.0061545521931320795
0.0016405107368351163 -0.0029798345047775164 -0.006198829606746995
0.0021012321220351526 -4.572949342250761E-5 -0.00591960605120762
0.003628678955058218 -5.027624234225118E-4 -0.004612973113118079
0.003495884398945383 -4.714164039338522E-4 -0.004748534712778841
0.0039048332348589026 -0.0010169226030277503 -0.00462689833243397
0.0042695889600817384 -0.0017270335298799966 -0.004719410842594705
0.0019335741908940245 -0.003270921307100056 -0.006227140836985859
0.0029008921495804665 8.923053720729188E-4 -0.00599515788450519
0.003040692137420911 7.033815214208631E-4 -0.005389829650277867
0.0018415437278748138 -0.0012004504373645496 -0.006218201446511855
0.001685309618967347 -0.0020739963780174813 -0.006200429729770872
0.005334185264669647 -0.0029892181202766867 -0.005193736194103591
0.005179031754208607 -0.003330896810961507 -0.00579392843939633
0.0028853073468175145 9.620626472729569E-4 -0.006413103548182195
0.002904459914933663 9.601953957619398E-4 -0.006314556347948835
0.0028979574968643926 9.857042967872961E-4 -0.006169411376762539
0.0036693884139280923 -0.00114513193484433 -0.004721121486688785
0.004024093416329882 -0.0017044546854903227 -0.004700358177168226