# vtk DataFile Version 3.0
vtk output
ASCII
DATASET POLYDATA
POINTS 1139 float
-22.270321037555597 1.72073557745515 3.760858357270364
-21.86024358727059 2.0392031774285058 3.6405756443912365
-22.568358286851574 2.6388921445545397 3.793073615566512
-21.79601362341326 2.679527319722696 3.53453275193319
-21.79488267028966 3.6628049566228893 3.632717618193773
-20.6928750721226 4.6087602756256665 3.8194440300098953
-22.783854968703977 1.510599941152502 4.162854178934594
-20.061912336379564 6.15558651453625 4.579083634887035
-24.05366557719267 2.3311144740399143 4.952210131964761
-20.59144204048038 5.520476040730158 3.90456449251407
-23.02727294393936 4.681671473675526 4.246844067394649
-21.738123477427273 4.90091624952544 3.703658649580528
-22.03886815322252 5.736681983815306 3.9037315473214873
-20.59981847413059 -1.2524642900913776 5.821410886417613
-21.616231201724016 0.8698651386163302 4.245654663935637
-20.87071506675255 0.029313730070336465 4.681282052442691
-20.262240919478018 0.7121805258954961 4.55366967814967
-20.79020945635262 2.49285938997072 3.8541576458664784
-19.277050753205444 1.9225744361478236 4.432871333320986
-18.85635724871001 3.747364785058188 4.49665802340465
-21.112789112886354 5.676113072929849 3.863451887107295
-22.642926585073518 6.304585863945711 4.265370524011715
-21.682393796533393 6.852208800169367 4.381486048731067
-23.56530753506438 6.5653354027871735 4.93455804205927
-23.410600000185035 7.431935876632859 5.069825883364116
-22.88175284004823 7.318257526134207 4.793261973753332
-22.250170760124846 8.046148842851247 5.174284229361694
-23.047786154227214 -1.2673834482247488 5.884554785974986
-23.059756268768922 0.2003410476213109 5.058348524154915
-24.82348852356642 0.30167228182645783 5.9585479683477285
-18.246423640960277 2.2975198287451093 4.751425109191984
-17.888283337597937 3.0937079300897614 4.756051856098436
-20.96708286903894 8.122285323784462 5.363116118038243
-22.68093115011469 -2.5246620832862954 6.806171804997562
-18.254961021669377 0.6496977153520385 5.416696682581309
-24.55606884506683 -1.681595104837181 6.939846745669512
-23.960792870644145 -0.677747151674235 5.76397175749967
-26.703714651106413 -0.10576132879724595 7.689642908206023
-17.111638882872743 2.3394040343966434 5.5246190594845
-26.0341016445089 2.02639788224832 6.486556289066249
-18.01455928418822 3.5072778726051292 4.650478246336046
-17.462555041516378 3.7628721890132133 5.210698766392277
-25.54417589860862 5.062186748451708 6.296571961169655
-23.76276694928713 8.079941736702299 6.012929755058318
-19.36539868832404 8.20615487006037 6.210678143023631
-23.144917519617973 9.942682363905245 7.05856770625691
-22.095911781768717 9.224088492672937 6.183363887567179
-28.534802606330164 2.618466433007392 8.413211735897512
-15.671119587643018 3.951690196008075 6.831695288996516
-17.631518763240692 6.010529157746253 5.988932241069449
-24.555035898337447 9.99492224687181 8.028408106333714
-20.69262191030483 9.480399266948835 6.652584867160023
-21.23388748508078 -3.907028677420005 7.794961677142575
-16.00558853917364 -0.811898642057757 6.900561791739531
-15.751029263192649 -1.2082190459205153 7.122786850023865
-15.457263086625968 0.5402514032823681 7.164859153046868
-30.49406739475046 2.736227130780996 9.592475811603933
-28.442056596451526 5.845820021617914 8.611359816837082
-17.982151675245987 8.369598826730362 7.127591306293752
-22.01581589113286 10.67481982184127 7.777830222280428
-23.411236398196422 10.790418225532058 7.999624773194394
-17.679476144651538 -4.883913207298271 8.730075320023825
-16.911919329256637 -1.4803291728559897 6.8836304251402645
-14.748253597162353 2.841603759624977 7.677524857307738
-30.955303904840758 2.348232854695719 9.90267667167025
-15.35445650583287 4.995088040498476 7.046585375859131
-30.294248074977183 4.420890094954097 9.788791370871959
-15.78291993418978 5.775554214613956 7.102071937365391
-29.087631083252536 6.631359172017478 9.225359083021083
-26.34617132865498 7.950831997596224 8.025190512275612
-21.378123958899508 -6.260990905503673 9.956946120286009
-23.64068801114196 -4.026681040988638 8.502657390028228
-26.40687714237042 -2.926581532778453 9.245843280892714
-30.497917549120487 1.7148065484913024 9.89597912330594
-15.173017871204086 6.566889502618932 8.370624839461524
-16.618683043079564 7.6021399182519795 7.58629666965226
-29.625275466585105 6.234039954892112 9.606459730115779
-24.018067277713353 11.687351885041386 9.63104181119101
-25.20580611875842 -6.202427313412894 11.239516689475018
-29.18888145196502 -0.6676345579876394 10.090862194677975
-31.346118732474494 2.7007282967768096 10.592095173701784
-17.477840565737328 9.019526492934226 8.081069445939947
-28.785051979609868 7.59352107654727 9.771779414214391
-19.39567068395702 10.307098113976458 8.471142849750924
-26.579623182066644 10.385490206775351 10.180651209365632
-25.443077042423976 11.615459705147028 10.258579893872353
-21.727596684754406 11.8069363838621 9.360998721334871
-18.620374160463086 -8.193104202186191 11.07323334907623
-14.773065797224183 -2.6862829128401944 8.162110564993515
-12.903296638366367 -3.602564549088843 9.049491720994814
-31.471350392196147 0.784611057931915 11.544963623455958
-14.95449113096383 5.1210012548932315 7.625993735805619
-14.63637248598215 7.124045571348992 9.565890530350302
-15.504883379142989 -8.449512962979195 11.344315097919454
-12.070187109448549 -3.871846033675638 9.366360818114538
-11.54279180866515 -3.3874922342241467 9.475130506298962
-28.565108139197964 -4.346341020034486 11.899451268925013
-12.513789120903457 -5.80126866657464 10.032668503278767
-11.237834743420642 -4.441978072390646 9.741761857182704
-10.292208949962275 -4.470835428326719 10.179769782439939
-27.456789504576143 -6.339244445708846 12.435233460196088
-10.648804401628661 -3.2622160409657983 10.11241487514257
-31.175025802467765 -1.9967587593322629 12.86103008670831
-32.82292746942455 0.4773841695321274 13.614811193252594
-30.776982556610612 6.374429888048595 11.135454068288258
-16.410344819670357 9.147855841038302 9.659613831242467
-25.66324101475898 12.073845748271678 11.202720014657856
-20.91680347163672 12.436649782757774 10.76810830561794
-24.263750024305267 12.990841726813821 12.039515000007826
-22.36225668358867 13.255499991190117 12.048950709802444
-22.610042119254175 12.703654959218639 10.685539929820143
-10.636302305585097 -5.967648242152254 10.282055250890945
-10.839823734363105 -5.308897294907113 10.023019817337548
-9.853394481327287 -6.224652185459437 10.761823504860144
-25.447036997912818 -8.067320456238791 13.042916964631322
-26.53639181155143 -7.130764505351109 12.53272689873068
-9.960014174129206 -5.37840667695617 10.498910566742364
-10.068834866072336 -3.975204885499066 10.339252602193602
-12.515326435924754 -1.648652606075758 9.17348303217251
-31.69692275813646 4.3283274228050095 11.339330949222703
-29.780372967557543 9.012717582618201 12.26514936255516
-17.208092536652742 -9.288577426441714 11.653396039427593
-10.447858072696071 -7.607578745776107 11.672056928052722
-10.490973756185529 -6.610311779905564 10.726467333119073
-9.510916925413149 -6.892111678992954 11.519236752877786
-9.195448999784908 -5.791712792287619 11.396961417759245
-28.795298883493693 -6.028744352688955 13.192583500344856
-9.527342224333651 -3.9970761243177146 11.063752058704322
-32.39000579836829 5.345097737030045 12.756936309764399
-27.602615156147266 11.61456159325106 12.919257127031237
-25.927098362415396 12.68889454277942 12.576202577217211
-21.007436017248697 13.167141379235149 12.872411777078673
-18.311805283588402 -9.785200666632786 12.310659796456433
-9.23130808145151 -7.751610094074649 12.507675970794907
-8.52735375299414 -6.728132932261711 12.763334866541532
-8.434722286627702 -5.033192939214277 12.44807528721053
-13.36242094865941 4.038728783710318 9.457934799917703
-32.748148777591915 2.7386453264458037 12.852616034546651
-14.059696179485828 8.270272197513432 11.262745870651262
-17.593548103073054 -11.015771465263475 13.778224048673165
-16.557043005711204 -10.036030897509798 12.430585591197255
-14.445158985832181 -10.762642402797933 13.72691718929366
-11.896405794456221 -9.06150530591996 12.720234636927806
-9.697445955055683 -8.752408461789447 13.262852686453698
-27.805144176815915 -7.400982833184616 13.799978463639027
-30.98771113805092 -5.597345119887564 14.983559214707277
-8.425413768368841 -3.134404145782182 12.77177277775331
-33.372791001909185 1.737535982965195 13.889973648625977
-31.71203248048466 7.242172785941917 12.942846770818072
-15.790212161142893 -12.380611767414965 15.575471992635869
-8.59014628590867 -8.15701101961126 13.879461106081367
-9.925811495805895 -0.46678891207212225 11.622163468519354
-33.94636116304888 2.046752628928001 15.433339736126673
-33.366455351555366 4.554678725478461 14.286986058200421
-32.88355618311603 6.589893732092775 14.335930543067796
-18.857452884076793 11.82883399294023 11.721210897506655
-16.66295296092918 -13.325535749180776 16.79415595165324
-19.07249158108025 -12.5556762127899 16.08717030655508
-11.537393501280935 -10.978069776588589 14.897467801978792
-21.768063563334515 -9.527333996996447 13.265865195923132
-24.00081333024819 -10.633035394818306 15.43143474693521
-8.931868940327167 -9.068631817082176 14.497023020801393
-31.257477020872365 -7.064825589813876 16.012289410030508
-7.757868059429879 -5.700897939656356 13.747015495535662
-7.796752908724514 -4.4558564341480285 13.517773867132577
-33.10250456319053 -2.2468555091251043 15.613057552468138
-31.857800561791755 8.452876683435179 14.435517234358457
-30.254284980383304 10.443970885581194 14.815243549796243
-28.48036073657532 12.102529057315497 15.35049563041453
-23.267628745379177 13.589588996599302 14.231950392141222
-17.73151787849812 -13.561955205852955 17.208474728344147
-14.72913611200809 -13.39456950723469 17.56058462132284
-9.853374848862044 -9.977799377943926 14.954658257808312
-8.158821134771745 -8.748562077248877 16.264963037344394
-7.812799577815797 -7.067494804462382 14.552427021926643
[...]
POINT_DATA 1139
FIELD PCA 16
mode_1 3 1139 float
0.004127435798183282 -0.0030927518766511613 -0.00580943904435159
0.004060436100454841 -0.0031272411452531066 -0.0057689623670404205
0.004074856465928149 -0.0032652614226544767 -0.005913573036032299
0.0040007585573638505 -0.003235432389972132 -0.0058038317765612985
0.003911720375003292 -0.003401280238989337 -0.0058730995086592195
0.0037124873550791935 -0.0035024593259102925 -0.00576514192556042
0.004179320552757767 -0.003083011667547795 -0.005861344355215035
0.0035206204162647942 -0.003701254022806563 -0.005764016718349794
0.0041958886026227825 -0.003286908428189661 -0.006063743845137203
0.003630065314030095 -0.0036454484555730566 -0.0058163523857893955
0.003933424115666233 -0.0036233834218214003 -0.006116455362065347
0.003799600794153413 -0.003605858328358922 -0.005957811511427007
0.0037608114801746715 -0.003752338003983782 -0.006068794184724225
0.004097719390644219 -0.002476567015249469 -0.005380347345575135
0.004108299562157054 -0.0029092156245688026 -0.005650648975577096
0.004080607481852851 -0.002720472342687825 -0.005486572526509244
0.00395553780914232 -0.002812004261855511 -0.0054326535594121025
0.0038946393743293423 -0.003150835504947799 -0.005628669139746366
0.0037443394725704873 -0.002977367182091088 -0.005345780467071996
0.003554042012564107 -0.003264298387315553 -0.005392290279637553
0.003672599586058708 -0.0036972697991383835 -0.0059157946945589375
0.0037728273573366727 -0.0038629637192859187 -0.006197138364187573
0.0036397940146995628 -0.003895912747089038 -0.006085487210230386
0.0038329854369315284 -0.003933211973187794 -0.006319279199048338
0.0037610112166617847 -0.0040518619533147495 -0.006366084841967582
0.0037201180497052687 -0.004016375191839577 -0.006291365335669637
0.0036136580854197486 -0.004079508172401245 -0.006232089107216595
0.004362000918203087 -0.002616077304270483 -0.005688989190381455
0.004275920119414485 -0.0028724414324494086 -0.005797169373701002
0.004382775793238723 -0.0029960856123571536 -0.005995897531441522
0.003578091602288368 -0.0029937291356153446 -0.005202916003644711
0.0034740362802353235 -0.0031149089327030723 -0.005188235601650315
0.0034859671719745695 -0.004019655973678571 -0.006030809541624342
0.004385342560568696 -0.0023663077753860095 -0.005557542365928487
0.0036786262060989677 -0.0027031350735116314 -0.005134561269747869
0.004472916737511936 -0.0026383553333949755 -0.005811628679160973
0.0044061839202726594 -0.002775806904132619 -0.00584144659042532
0.0044658235212607774 -0.0030521135379474934 -0.006096256714375062
0.003409033977439991 -0.0029434384258047504 -0.005052155715672319
0.00431805401160288 -0.003352856745351481 -0.006223226121227168
0.0034627449233677232 -0.0031909988317650154 -0.005230628517414506
0.0033654078366938157 -0.0031983159216837555 -0.005175744679913058
0.004081676465770022 -0.0037877767662515536 -0.006377023751714632
0.0037558358726805944 -0.00413350051409543 -0.006398531557973095
0.0033192715995175657 -0.003930054161418882 -0.005755507312916009
0.003610251628232041 -0.004324396149642081 -0.006395922533863029
0.0035377910011730037 -0.004205201099433071 -0.006245439237342084
0.004378052454891304 -0.0036047826620026376 -0.006420891261573437
0.003095678419993573 -0.0031337409060684398 -0.004975972716869827
0.0032360462020575133 -0.003538665772505344 -0.005354455318563607
0.003753616737098534 -0.004372750594410907 -0.006499631875051671
0.003393898800898662 -0.004159035687100449 -0.006032118839707034
0.00430567870987696 -0.002021212591797244 -0.005321674987923122
0.0034397974274548403 -0.002334284793623545 -0.004762350106007131
0.003419075057071967 -0.0022549920677904954 -0.004719666452231505
0.00326572059870962 -0.002553308122305763 -0.004786668552548511
0.004449906562443785 -0.003767285819071686 -0.006546218532700994
0.004220459745094781 -0.004042898699128455 -0.0066253772432514745
0.0031573362210439264 -0.0038700661263502824 -0.005534494910752988
0.0034850961430432656 -0.0043445182189643695 -0.006242388237398425
0.0036130820742122033 -0.004418434362862691 -0.006426244090343318
0.003930481143113527 -0.0016520111909118136 -0.004897769181947978
0.0036088391316058542 -0.0022551766596154545 -0.004870435011822157
0.003037020336498003 -0.0029099939461029113 -0.004834977183449414
0.004481063306660492 -0.0037498427994420184 -0.006539030109974154
0.0029819450495594704 -0.003285917975311164 -0.004972306030415001
0.00438208110500264 -0.003971550640699997 -0.006605593502647434
0.0030019799346439483 -0.003415529847441726 -0.005078058965642537
0.004230455562133461 -0.004177321095502692 -0.006712206821162523
0.003987910485840249 -0.004204011690472033 -0.0065626728643556785
0.004428058728053678 -0.0015776654328572826 -0.005235962437887975
0.004503529349796564 -0.0021549535162967773 -0.005552231526405894
0.004567629782778832 -0.002556788441262804 -0.005826366753959234
0.004486872620345418 -0.003620389315922281 -0.00643714255553685
0.0029059013683525197 -0.003482534026881812 -0.005076158022400236
0.0030344858715271733 -0.0036976074013599634 -0.005297826085768301
0.0042797959017701935 -0.004159295285196944 -0.006692074012295812
0.003683733380365953 -0.0045129569577912095 -0.006419478563656453
0.004633847429948007 -0.0018790482675594329 -0.005515068377586016
0.00453374649389526 -0.003150104801709108 -0.006127149579262667
0.004483523308008753 -0.0038201272795440103 -0.006493908753011643
0.003084053481541967 -0.0039173509667125225 -0.005493339965278914
0.004189542829391617 -0.004274836292989059 -0.0066551309766719954
0.0032655002609554146 -0.0041573074404092246 -0.005817809975265462
0.003957231237088412 -0.0044797377070153075 -0.006547280781699204
0.003825435230048021 -0.004558499552761041 -0.006525886274883807
0.003460701109796558 -0.004425470614697158 -0.0061726900974662805
0.004336339313822163 -0.0010084700240178966 -0.004953864866244
0.003329401765794926 -0.0019640883824622824 -0.004582271331425857
0.0030502801187214995 -0.0017520945514140562 -0.0043358516615855805
0.004537637155097519 -0.0035527439023829 -0.006242439992130552
0.0029282767696756622 -0.0032823890108628754 -0.004956973115923102
0.002855456317223265 -0.0035131541796279146 -0.005078027655449923
0.003990151601334562 -8.367734307739785E-4 -0.004701253548029095
0.0028957560757742642 -0.0016926461540496436 -0.004221391625279894
0.0027461415889390994 -0.001788214864512995 -0.004174739749954707
0.004616614312489119 -0.0025051127234678996 -0.005745367282271453
0.0031403104466093974 -0.0013485004697536367 -0.004293181706000984
0.002744763200401517 -0.0015958784670132688 -0.004106233833434963
0.0025343341544728885 -0.001619297912608804 -0.004022513837933791
0.004675721846797772 -0.0020640003093012273 -0.005580772617020519
0.0025593422371513103 -0.001841190828610252 -0.004137480862563314
0.004565917729983194 -0.003110579899938379 -0.005910958059229254
0.004561994167745155 -0.0036086757262193286 -0.0060255732354668546
0.004367301351234692 -0.00424075722527279 -0.006593706367309412
0.003018344450881098 -0.003851689417598393 -0.005361965440844462
0.0038748102075541325 -0.004604094674976727 -0.006467991191349094
0.003433019027603712 -0.004430718941130753 -0.006013969886905171
0.003779485946750788 -0.004624563445734367 -0.006291744491110959
0.003607410918275517 -0.004564625234484446 -0.00612083341277184
0.0035695494050195314 -0.004539089906396854 -0.006236805031518303
0.00272758873836184 -0.0013242402845789977 -0.004029757630215568
0.002712937954093093 -0.0014419719614603855 -0.004043665141515848
0.0025889928919709524 -0.0013063902406144517 -0.00398300542871816
0.004683778527624596 -0.001559051580710361 -0.005414908955563798
0.004693066732504527 -0.0018347872597491808 -0.005506612065376044
0.0025313334704106117 -0.001462521388390912 -0.003985622069771252
0.002457915287024284 -0.0017276493014820712 -0.00403872979178992
0.0028630004084599075 -0.0021121407080388474 -0.004400233388866704
0.004459424062571301 -0.004051954772136987 -0.00651749682278059
0.004287047958009224 -0.0044781573885568195 -0.006485432538433923
0.004327870278781165 -6.890420638017355E-4 -0.004836465659407404
0.002945582968632168 -0.0010348915707255903 -0.004183700491423212
0.0027825429393574757 -0.001213495041392121 -0.004063690598257376
0.002624289264792731 -0.0012137194071931213 -0.0040450695019212096
0.0024355555029582743 -0.0014506719401804083 -0.004015601921707641
0.004643091423992529 -0.002251071008708073 -0.00560114260703664
0.002380975458024244 -0.0017713338094118279 -0.004084910364995608
0.004495899381966382 -0.004216204736928654 -0.006410767279784491
0.004118763174312451 -0.004633352757935247 -0.006376238974947029
0.0039498399697117164 -0.004662796845148042 -0.006367252155071899
0.003546033420991194 -0.0044847710141706475 -0.00591253484857486
0.004476394246161137 -6.411286883660596E-4 -0.0049473728873489315
0.002725320220362494 -0.0010797781776992876 -0.004153080659882469
0.0024588569707007677 -0.0013562232486517352 -0.00413240743313491
0.0022615912059819215 -0.0017018712005191516 -0.004122463003673209
0.002800514671876004 -0.003047921898097909 -0.004835429792506611
0.004539188695003438 -0.003914883935086008 -0.0062587429681336855
0.0028412661825684246 -0.003613015382373005 -0.00512965405775979
0.004530066141515454 -3.4684382698882605E-4 -0.0049953950931838275
0.004339483106205901 -5.034734217269574E-4 -0.00483367348857441
0.0041676398351908304 -3.121955624966329E-4 -0.004801429211985786
0.0034915874139774556 -7.07085880083004E-4 -0.004479486133904287
0.0030172975674884915 -8.578803787269001E-4 -0.0043144898393763205
0.004655208589957357 -0.0019148217144987537 -0.005489145072320577
0.004547728774719726 -0.0025451061747757157 -0.005549435620351285
0.002186867405866646 -0.002068375138251495 -0.004261913643001304
0.0045678020424570935 -0.003828567828572898 -0.006076891465475686
0.004447055502964925 -0.004392321718984272 -0.006441964399098843
0.004560670369956889 3.969945031518958E-5 -0.005064626386821114
0.0027290944447960247 -0.0010762437240887073 -0.004295210846819935
0.0023896332574074954 -0.0023875178228138427 -0.004424798255871107
0.00458524577059409 -0.003889806054414655 -0.005871746812361189
0.004568347902466665 -0.004175931454702889 -0.006164467540678783
0.0045486492663623515 -0.004384505287868124 -0.006244444364929011
0.0033148764774129785 -0.00425352884802736 -0.005696557823045017
0.004772486448557755 2.4137194062513544E-4 -0.0052243619195559005
0.0047588156796048555 -9.841518171355151E-5 -0.005212963757364961
0.0038077607770138256 -2.883598496740331E-4 -0.004717258407239431
0.004626394188425957 -9.532828376475151E-4 -0.005207729487620624
0.0046730413858101965 -9.463058988911043E-4 -0.005268650484371553
0.002978113788013243 -8.628227280635535E-4 -0.004420187967149586
0.004490768084054279 -0.0023619150302757602 -0.005443094826679785
0.002246894668333516 -0.0016760038637394328 -0.004232940772329223
0.002141977940369674 -0.001912851642922785 -0.004242087478185377
0.0045422084006149065 -0.0032320285170653463 -0.00565188091044999
0.004495725370460917 -0.004525804002947728 -0.006259838582327194
0.004405653619993266 -0.004639547342078625 -0.0061970385287878895
0.00430467436714256 -0.004710224014746447 -0.006104790430487898
0.003816740044777884 -0.004617042682739628 -0.006000448069543936
0.004841751969506521 2.3110987358115158E-4 -0.0052812720855500836
0.004658605142721382 3.047443033431492E-4 -0.005246281959422274
0.003345144045632923 -6.030864800704826E-4 -0.004578132639065412
0.0029113928035218554 -0.0010431139268380174 -0.004625206284783046
0.0024756901657854934 -0.0014021930039900508 -0.004341686376785856
0.002161057780311942 -0.001931969191449677 -0.004364079261947113
0.004510781765394969 -0.00287933275382162 -0.00550992773613357
0.0026268595441741004 -0.0034086261461801952 -0.005000775242243064
0.0028343255562663337 -0.003751786601186832 -0.005206412647600028
0.003129539987423082 -0.004021537534636416 -0.005401214215410913
0.004056149362249861 -0.004692626532168425 -0.00615669969631973
0.004074635752069764 -0.0046987372344876495 -0.005944973267357618
0.004243796724751035 2.291075376524068E-5 -0.004983500544940323
0.00471424838922755 -6.040332664741715E-4 -0.005251276026446282
0.002280673570591157 -0.0017454254497212185 -0.004406700966934011
0.004492420052900607 -0.002471014194613778 -0.005474826524934698
0.004478518378913336 -0.0024506038746906064 -0.005454844408497372
0.0021145178561303643 -0.0021464579048452075 -0.004401213803344866
0.0021942114535360275 -0.0027089386753179575 -0.004598601868121575
0.004588989532636596 -0.004494933413679937 -0.006095955313461361
0.0025291469207213433 -0.0035010909449091645 -0.005090555926822825
0.004833410194694725 3.4876039272924576E-4 -0.005343881528984879
0.004837664555165293 1.2315808342879138E-4 -0.0053520695345304565
0.004824480934566901 -9.991434344102063E-7 -0.0052870264096110085
0.004596974677151422 -0.0010593789637402017 -0.005281252401207145
0.00465215246201848 -0.0013558903991358051 -0.005342025123815165
0.0024825295721899797 -0.0015693052276251301 -0.004552707525147802
0.004476121184805112 -0.002496097652662379 -0.005432120643698194
0.0021059798486879997 -0.0022982327806589818 -0.0045206688942444045
0.004457049683079862 -0.0028169232535092863 -0.005314089600847652
0.002121924622687928 -0.0024508460265867216 -0.004505113836398744
0.004572268366686328 -0.003641461970413845 -0.005314947157998269
0.004628496669348228 -0.004345418658358422 -0.005891270453328806
0.0036710416113372797 -0.004436618743088073 -0.005631459106782401
0.004804094172840637 4.1244125603881227E-4 -0.0054072507188736955
0.003858193339222775 -1.6575393727537928E-4 -0.004858697601269291
0.003667294048099092 -3.024447673693152E-4 -0.004759716452348656
0.0021116349424515498 -0.002390734219181379 -0.004587965699507217
0.002317819045770523 -0.003077016362092256 -0.004837515923610874
0.0023325079588538003 -0.0033817783163475447 -0.005090392573607826
0.004536206040323911 -0.004728803705280284 -0.005865110224074598
0.004363871054905766 -0.004738020805766585 -0.005761073584426246
0.004725457701501637 3.755365859627991E-4 -0.005473495599706687
0.004060489854117059 -5.156280083176172E-5 -0.005050807257922395
0.004770573623470884 -2.490845743671302E-4 -0.005298110331259604
0.0037112213910499054 -2.5679290770898354E-4 -0.004829751864524419
0.003173881591192007 -9.20498648320741E-4 -0.004941590604385981
0.0029982348541242585 -0.001158972842103906 -0.004949833876338629
0.0045445652611945985 -0.0019029883256258117 -0.005386027283731468
0.0044131766831031465 -0.0018901847588193175 -0.005243554890916072
0.0043464691567440365 -0.0022255497829479654 -0.005191299942571643
0.004441478924711098 -0.0022837500115141613 -0.005335584669444101
0.00466250514859496 -0.004158984205072179 -0.005457420893754709
0.002155277037850927 -0.003018449373793882 -0.00479692448754302
0.0021290453168191083 -0.002856725633011546 -0.004729449071057079
0.002282353817082014 -0.003389909066363134 -0.005152278369921162
0.0023303847062757276 -0.0034645370573111113 -0.0051842350305695995
0.004624528907403733 -0.0046140638172433735 -0.005875609684871733
0.00470040601880784 -0.004746551837222479 -0.0056561160118614945
0.0035969040535029436 -4.6146915698071916E-4 -0.004933689207807475
0.0031428554956199057 -0.0010210474262569698 -0.005031532213316995
0.002284336860838464 -0.00212356944363043 -0.004686642311263562
0.002154747076318923 -0.0030605323153779724 -0.004880273171945467
0.002162172977926488 -0.0030974356882493845 -0.004983792779912957
0.004734863968139777 -0.004496517009505446 -0.005402339057213348
0.0023684205821536304 -0.003510577853327393 -0.005208454420844842
0.002804204952742958 -0.0037811681541539163 -0.005271650174941892
0.004749643491543412 -0.004771058874967784 -0.005539302875369898
0.004707369216496235 -0.00477123535347871 -0.005465011708744763
0.004064787838569336 -0.0046565987418143405 -0.005755275606362327
0.004848236497922534 4.5240329620241273E-4 -0.005626232005589975
0.004410502121585872 1.7387597198076008E-4 -0.005255507889622867
0.004699719692000726 -4.4287232511550393E-4 -0.005330806073420068
0.002562510344847533 -0.0023336496102006245 -0.005185517926652264
0.0021394370969164086 -0.0026038823032135104 -0.004728809992882765
0.002147521660026014 -0.0029256008021914704 -0.004898078002345949
0.002277899864148426 -0.003265493346245195 -0.005126159922884224
0.0023316877135739606 -0.0034414683561090776 -0.005234351280606008
0.0023889805124316325 -0.0035017518370345406 -0.00527785325399231
0.002395026395056472 -0.0035180395238036464 -0.005247004461012044
0.002484581796408798 -0.0035672842876468182 -0.005212773191358639
0.004757790275100159 -0.004711590058789776 -0.005478046426827999
0.0027526607981103704 -0.003751378394910328 -0.005323099447874556
0.004861747012165993 4.6867295579810207E-4 -0.005677990262284587
0.004617993986685113 -6.772442793732738E-4 -0.00531549872826246
0.0026771561014262224 -0.0015425940069266474 -0.004824885823921397
0.0022347953356700876 -0.0030538854017493518 -0.005070618271102726
0.0023503206430299647 -0.003415762171645043 -0.005274271509563566
0.002380338989107903 -0.003465851598962819 -0.005298732134993739
0.002450123389469979 -0.00354305510005354 -0.00529912963255391
0.0028496658878829203 -0.0037988878102042357 -0.005383895163838667
0.0032803426425553877 -0.004119570769601138 -0.005408201993097692
0.004117578247673687 -1.294468118058354E-4 -0.005279901812656048
0.004773504457208239 -1.3123780578842395E-4 -0.005367713355777528
0.0029284784697689924 -0.001485425314491435 -0.005109848323229096
0.00431910045362295 -0.002016006065931706 -0.0051695090918285
0.002446862956197085 -0.0034856181166406006 -0.005347619409503187
0.0024929586627789753 -0.003539635941126569 -0.005340346922337858
0.0026313552989934183 -0.0036512473447586464 -0.0053398259930171055
0.004859923355117177 3.9204515121092675E-4 -0.005687505935508501
0.004773076987828516 3.407041634739436E-4 -0.005659810558122498
0.002333214401748858 -0.002736456407501097 -0.005071660584940189
0.002361664604188835 -0.003380275979219107 -0.005278652674793657
0.0031210253003094344 -0.003974738119789612 -0.00542169311590411
0.004848439312558429 3.136880230615344E-4 -0.005545700510817261
0.004781347412789941 -3.316230038931487E-5 -0.005458334891811817
0.004501099874529325 1.1707566283897057E-4 -0.005511940460270774
0.0038286116395942573 -5.414881008802943E-4 -0.00533243446306202
0.004491380070667649 -0.0010185845986439145 -0.005262786029177111
0.0026913809689071556 -0.001906562179773965 -0.005105531354673019
0.0026090551392347183 -0.0026409516660695393 -0.0053535086937041305
0.0024516575108816108 -0.0031390240007171375 -0.005303815208385799
0.004760377220196635 -0.004258493958379771 -0.0048135424484952085
0.00246181760095611 -0.003364384059144512 -0.005350789858112788
0.002461576612034451 -0.0034527617800982763 -0.005364003131959904
0.00265456746096896 -0.0035712066576653757 -0.005453415916517085
0.0033328179588702363 -0.0010618723918336857 -0.00522213242029746
0.0043009986028668 -0.002049910127021598 -0.005151626073778603
0.0043321466646789215 -0.0019224638062411421 -0.005110316711430262
0.004345726569777733 -0.0025965950155562587 -0.005046855698269995
0.00446088382089171 -0.0033204323732323763 -0.004813802096312318
0.002973107575972105 -0.003837605175026738 -0.00545198349577529
0.004798827224812067 7.521268023911727E-6 -0.005584966192008686
0.004674301631289185 -4.0975750557014474E-4 -0.005373447052064006
0.0028275324593011832 -0.0021210396091181807 -0.00537769458885259
0.0025726843189673226 -0.0028991409265010574 -0.0053813471340923005
0.004903463230696387 -0.004593557205609192 -0.004639718856306294
0.004797003416751968 -0.004783639720082445 -0.0051803694539256494
0.004794265930841037 1.7264342356361676E-4 -0.005760387481691469
0.004841180266687611 1.5965071606152055E-4 -0.0057273934332106044
0.004842477289361833 1.4175888633193856E-4 -0.005662311270816434
0.004287551585942316 -0.002641631032329968 -0.004859938728107416
0.004387976402905375 -0.003253175521017703 -0.004645774340832792